+ 0.1 0 1 cbr 1000 ------- 0 0.0 2.0 0 0
- 0.1 0 1 cbr 1000 ------- 0 0.0 2.0 0 0
+ 0.1 0 1 cbr 500 ------- 0 0.0 2.0 1 1
- 0.108 0 1 cbr 500 ------- 0 0.0 2.0 1 1
+ 0.11 0 1 cbr 1000 ------- 0 0.0 2.0 2 2
+ 0.11 0 1 cbr 500 ------- 0 0.0 2.0 3 3
- 0.112 0 1 cbr 1000 ------- 0 0.0 2.0 2 2
r 0.118 0 1 cbr 1000 ------- 0 0.0 2.0 0 0
+ 0.118 1 2 cbr 1000 ------- 0 0.0 2.0 0 0
- 0.118 1 2 cbr 1000 ------- 0 0.0 2.0 0 0
+ 0.12 0 1 cbr 1000 ------- 0 0.0 2.0 4 4
+ 0.12 0 1 cbr 500 ------- 0 0.0 2.0 5 5
- 0.12 0 1 cbr 500 ------- 0 0.0 2.0 3 3
r 0.122 0 1 cbr 500 ------- 0 0.0 2.0 1 1
+ 0.122 1 2 cbr 500 ------- 0 0.0 2.0 1 1
- 0.124 0 1 cbr 1000 ------- 0 0.0 2.0 4 4
- 0.129429 1 2 cbr 500 ------- 0 0.0 2.0 1 1
r 0.13 0 1 cbr 1000 ------- 0 0.0 2.0 2 2
+ 0.13 1 2 cbr 1000 ------- 0 0.0 2.0 2 2
+ 0.13 0 1 cbr 1000 ------- 0 0.0 2.0 6 6
+ 0.13 0 1 cbr 500 ------- 0 0.0 2.0 7 7
- 0.132 0 1 cbr 500 ------- 0 0.0 2.0 5 5
r 0.134 0 1 cbr 500 ------- 0 0.0 2.0 3 3
+ 0.134 1 2 cbr 500 ------- 0 0.0 2.0 3 3
- 0.135143 1 2 cbr 1000 ------- 0 0.0 2.0 2 2
- 0.136 0 1 cbr 1000 ------- 0 0.0 2.0 6 6
r 0.139429 1 2 cbr 1000 ------- 0 0.0 2.0 0 0
+ 0.14 0 1 cbr 1000 ------- 0 0.0 2.0 8 8
+ 0.14 0 1 cbr 500 ------- 0 0.0 2.0 9 9
r 0.142 0 1 cbr 1000 ------- 0 0.0 2.0 4 4
+ 0.142 1 2 cbr 1000 ------- 0 0.0 2.0 4 4
- 0.144 0 1 cbr 500 ------- 0 0.0 2.0 7 7
r 0.145143 1 2 cbr 500 ------- 0 0.0 2.0 1 1
r 0.146 0 1 cbr 500 ------- 0 0.0 2.0 5 5
+ 0.146 1 2 cbr 500 ------- 0 0.0 2.0 5 5
- 0.146571 1 2 cbr 500 ------- 0 0.0 2.0 3 3
- 0.148 0 1 cbr 1000 ------- 0 0.0 2.0 8 8
+ 0.15 0 1 cbr 1000 ------- 0 0.0 2.0 10 10
+ 0.15 0 1 cbr 500 ------- 0 0.0 2.0 11 11
- 0.152286 1 2 cbr 1000 ------- 0 0.0 2.0 4 4
r 0.154 0 1 cbr 1000 ------- 0 0.0 2.0 6 6
+ 0.154 1 2 cbr 1000 ------- 0 0.0 2.0 6 6
- 0.156 0 1 cbr 500 ------- 0 0.0 2.0 9 9
r 0.156571 1 2 cbr 1000 ------- 0 0.0 2.0 2 2
r 0.158 0 1 cbr 500 ------- 0 0.0 2.0 7 7
+ 0.158 1 2 cbr 500 ------- 0 0.0 2.0 7 7
+ 0.16 0 1 cbr 1000 ------- 0 0.0 2.0 12 12
+ 0.16 0 1 cbr 500 ------- 0 0.0 2.0 13 13
- 0.16 0 1 cbr 1000 ------- 0 0.0 2.0 10 10
r 0.162286 1 2 cbr 500 ------- 0 0.0 2.0 3 3
- 0.163714 1 2 cbr 500 ------- 0 0.0 2.0 5 5
r 0.166 0 1 cbr 1000 ------- 0 0.0 2.0 8 8
+ 0.166 1 2 cbr 1000 ------- 0 0.0 2.0 8 8
- 0.168 0 1 cbr 500 ------- 0 0.0 2.0 11 11
- 0.169429 1 2 cbr 1000 ------- 0 0.0 2.0 6 6
+ 0.17 0 1 cbr 1000 ------- 0 0.0 2.0 14 14
+ 0.17 0 1 cbr 500 ------- 0 0.0 2.0 15 15
r 0.17 0 1 cbr 500 ------- 0 0.0 2.0 9 9
+ 0.17 1 2 cbr 500 ------- 0 0.0 2.0 9 9
- 0.172 0 1 cbr 1000 ------- 0 0.0 2.0 12 12
r 0.173714 1 2 cbr 1000 ------- 0 0.0 2.0 4 4
r 0.178 0 1 cbr 1000 ------- 0 0.0 2.0 10 10
+ 0.178 1 2 cbr 1000 ------- 0 0.0 2.0 10 10
r 0.179429 1 2 cbr 500 ------- 0 0.0 2.0 5 5
+ 0.18 0 1 cbr 1000 ------- 0 0.0 2.0 16 16
+ 0.18 0 1 cbr 500 ------- 0 0.0 2.0 17 17
d 0.18 0 1 cbr 500 ------- 0 0.0 2.0 17 17
- 0.18 0 1 cbr 500 ------- 0 0.0 2.0 13 13
- 0.180857 1 2 cbr 500 ------- 0 0.0 2.0 7 7
r 0.182 0 1 cbr 500 ------- 0 0.0 2.0 11 11
+ 0.182 1 2 cbr 500 ------- 0 0.0 2.0 11 11
- 0.184 0 1 cbr 1000 ------- 0 0.0 2.0 14 14
- 0.186571 1 2 cbr 1000 ------- 0 0.0 2.0 8 8
r 0.19 0 1 cbr 1000 ------- 0 0.0 2.0 12 12
+ 0.19 1 2 cbr 1000 ------- 0 0.0 2.0 12 12
+ 0.19 0 1 cbr 1000 ------- 0 0.0 2.0 18 18
+ 0.19 0 1 cbr 500 ------- 0 0.0 2.0 19 19
r 0.190857 1 2 cbr 1000 ------- 0 0.0 2.0 6 6
- 0.192 0 1 cbr 500 ------- 0 0.0 2.0 15 15
r 0.194 0 1 cbr 500 ------- 0 0.0 2.0 13 13
+ 0.194 1 2 cbr 500 ------- 0 0.0 2.0 13 13
d 0.194 1 2 cbr 500 ------- 0 0.0 2.0 13 13
- 0.196 0 1 cbr 1000 ------- 0 0.0 2.0 16 16
r 0.196571 1 2 cbr 500 ------- 0 0.0 2.0 7 7
- 0.198 1 2 cbr 500 ------- 0 0.0 2.0 9 9
+ 0.2 0 1 cbr 1000 ------- 0 0.0 2.0 20 20
+ 0.2 0 1 cbr 500 ------- 0 0.0 2.0 21 21
r 0.202 0 1 cbr 1000 ------- 0 0.0 2.0 14 14
+ 0.202 1 2 cbr 1000 ------- 0 0.0 2.0 14 14
- 0.203714 1 2 cbr 1000 ------- 0 0.0 2.0 10 10
- 0.204 0 1 cbr 1000 ------- 0 0.0 2.0 18 18
r 0.206 0 1 cbr 500 ------- 0 0.0 2.0 15 15
+ 0.206 1 2 cbr 500 ------- 0 0.0 2.0 15 15
r 0.208 1 2 cbr 1000 ------- 0 0.0 2.0 8 8
+ 0.21 0 1 cbr 1000 ------- 0 0.0 2.0 22 22
+ 0.21 0 1 cbr 500 ------- 0 0.0 2.0 23 23
d 0.21 0 1 cbr 500 ------- 0 0.0 2.0 23 23
- 0.212 0 1 cbr 500 ------- 0 0.0 2.0 19 19
r 0.213714 1 2 cbr 500 ------- 0 0.0 2.0 9 9
r 0.214 0 1 cbr 1000 ------- 0 0.0 2.0 16 16
+ 0.214 1 2 cbr 1000 ------- 0 0.0 2.0 16 16
d 0.214 1 2 cbr 1000 ------- 0 0.0 2.0 16 16
- 0.215143 1 2 cbr 500 ------- 0 0.0 2.0 11 11
- 0.216 0 1 cbr 1000 ------- 0 0.0 2.0 20 20
+ 0.22 0 1 cbr 1000 ------- 0 0.0 2.0 24 24
+ 0.22 0 1 cbr 500 ------- 0 0.0 2.0 25 25
- 0.220857 1 2 cbr 1000 ------- 0 0.0 2.0 12 12
r 0.222 0 1 cbr 1000 ------- 0 0.0 2.0 18 18
+ 0.222 1 2 cbr 1000 ------- 0 0.0 2.0 18 18
- 0.224 0 1 cbr 500 ------- 0 0.0 2.0 21 21
r 0.225143 1 2 cbr 1000 ------- 0 0.0 2.0 10 10
r 0.226 0 1 cbr 500 ------- 0 0.0 2.0 19 19
+ 0.226 1 2 cbr 500 ------- 0 0.0 2.0 19 19
- 0.228 0 1 cbr 1000 ------- 0 0.0 2.0 22 22
+ 0.23 0 1 cbr 1000 ------- 0 0.0 2.0 26 26
+ 0.23 0 1 cbr 500 ------- 0 0.0 2.0 27 27
r 0.230857 1 2 cbr 500 ------- 0 0.0 2.0 11 11
- 0.232286 1 2 cbr 1000 ------- 0 0.0 2.0 14 14
r 0.234 0 1 cbr 1000 ------- 0 0.0 2.0 20 20
+ 0.234 1 2 cbr 1000 ------- 0 0.0 2.0 20 20
- 0.236 0 1 cbr 1000 ------- 0 0.0 2.0 24 24
r 0.238 0 1 cbr 500 ------- 0 0.0 2.0 21 21
+ 0.238 1 2 cbr 500 ------- 0 0.0 2.0 21 21
d 0.238 1 2 cbr 500 ------- 0 0.0 2.0 21 21
+ 0.24 0 1 cbr 1000 ------- 0 0.0 2.0 28 28
+ 0.24 0 1 cbr 500 ------- 0 0.0 2.0 29 29
d 0.24 0 1 cbr 500 ------- 0 0.0 2.0 29 29
r 0.242286 1 2 cbr 1000 ------- 0 0.0 2.0 12 12
- 0.243714 1 2 cbr 500 ------- 0 0.0 2.0 15 15
- 0.244 0 1 cbr 500 ------- 0 0.0 2.0 25 25
r 0.246 0 1 cbr 1000 ------- 0 0.0 2.0 22 22
+ 0.246 1 2 cbr 1000 ------- 0 0.0 2.0 22 22
- 0.248 0 1 cbr 1000 ------- 0 0.0 2.0 26 26
- 0.249429 1 2 cbr 1000 ------- 0 0.0 2.0 18 18
+ 0.25 0 1 cbr 1000 ------- 0 0.0 2.0 30 30
+ 0.25 0 1 cbr 500 ------- 0 0.0 2.0 31 31
r 0.253714 1 2 cbr 1000 ------- 0 0.0 2.0 14 14
r 0.254 0 1 cbr 1000 ------- 0 0.0 2.0 24 24
+ 0.254 1 2 cbr 1000 ------- 0 0.0 2.0 24 24
- 0.256 0 1 cbr 500 ------- 0 0.0 2.0 27 27
r 0.258 0 1 cbr 500 ------- 0 0.0 2.0 25 25
+ 0.258 1 2 cbr 500 ------- 0 0.0 2.0 25 25
d 0.258 1 2 cbr 500 ------- 0 0.0 2.0 25 25
r 0.259429 1 2 cbr 500 ------- 0 0.0 2.0 15 15
+ 0.26 0 1 cbr 1000 ------- 0 0.0 2.0 32 32
+ 0.26 0 1 cbr 500 ------- 0 0.0 2.0 33 33
d 0.26 0 1 cbr 500 ------- 0 0.0 2.0 33 33
- 0.26 0 1 cbr 1000 ------- 0 0.0 2.0 28 28
- 0.260857 1 2 cbr 500 ------- 0 0.0 2.0 19 19
r 0.266 0 1 cbr 1000 ------- 0 0.0 2.0 26 26
+ 0.266 1 2 cbr 1000 ------- 0 0.0 2.0 26 26
- 0.266571 1 2 cbr 1000 ------- 0 0.0 2.0 20 20
- 0.268 0 1 cbr 1000 ------- 0 0.0 2.0 30 30
r 0.27 0 1 cbr 500 ------- 0 0.0 2.0 27 27
+ 0.27 1 2 cbr 500 ------- 0 0.0 2.0 27 27
+ 0.27 0 1 cbr 1000 ------- 0 0.0 2.0 34 34
+ 0.27 0 1 cbr 500 ------- 0 0.0 2.0 35 35
r 0.270857 1 2 cbr 1000 ------- 0 0.0 2.0 18 18
- 0.276 0 1 cbr 500 ------- 0 0.0 2.0 31 31
r 0.276571 1 2 cbr 500 ------- 0 0.0 2.0 19 19
r 0.278 0 1 cbr 1000 ------- 0 0.0 2.0 28 28
+ 0.278 1 2 cbr 1000 ------- 0 0.0 2.0 28 28
d 0.278 1 2 cbr 1000 ------- 0 0.0 2.0 28 28
- 0.278 1 2 cbr 1000 ------- 0 0.0 2.0 22 22
+ 0.28 0 1 cbr 1000 ------- 0 0.0 2.0 36 36
+ 0.28 0 1 cbr 500 ------- 0 0.0 2.0 37 37
d 0.28 0 1 cbr 500 ------- 0 0.0 2.0 37 37
- 0.28 0 1 cbr 1000 ------- 0 0.0 2.0 32 32
r 0.286 0 1 cbr 1000 ------- 0 0.0 2.0 30 30
+ 0.286 1 2 cbr 1000 ------- 0 0.0 2.0 30 30
r 0.288 1 2 cbr 1000 ------- 0 0.0 2.0 20 20
- 0.288 0 1 cbr 1000 ------- 0 0.0 2.0 34 34
- 0.289429 1 2 cbr 1000 ------- 0 0.0 2.0 24 24
r 0.29 0 1 cbr 500 ------- 0 0.0 2.0 31 31
+ 0.29 1 2 cbr 500 ------- 0 0.0 2.0 31 31
+ 0.29 0 1 cbr 1000 ------- 0 0.0 2.0 38 38
+ 0.29 0 1 cbr 500 ------- 0 0.0 2.0 39 39
- 0.296 0 1 cbr 500 ------- 0 0.0 2.0 35 35
r 0.298 0 1 cbr 1000 ------- 0 0.0 2.0 32 32
+ 0.298 1 2 cbr 1000 ------- 0 0.0 2.0 32 32
d 0.298 1 2 cbr 1000 ------- 0 0.0 2.0 32 32
r 0.299429 1 2 cbr 1000 ------- 0 0.0 2.0 22 22
+ 0.3 0 1 cbr 1000 ------- 0 0.0 2.0 40 40
+ 0.3 0 1 cbr 500 ------- 0 0.0 2.0 41 41
d 0.3 0 1 cbr 500 ------- 0 0.0 2.0 41 41
- 0.3 0 1 cbr 1000 ------- 0 0.0 2.0 36 36
- 0.300857 1 2 cbr 1000 ------- 0 0.0 2.0 26 26
r 0.306 0 1 cbr 1000 ------- 0 0.0 2.0 34 34
+ 0.306 1 2 cbr 1000 ------- 0 0.0 2.0 34 34
- 0.308 0 1 cbr 1000 ------- 0 0.0 2.0 38 38
r 0.31 0 1 cbr 500 ------- 0 0.0 2.0 35 35
+ 0.31 1 2 cbr 500 ------- 0 0.0 2.0 35 35
d 0.31 1 2 cbr 500 ------- 0 0.0 2.0 35 35
+ 0.31 0 1 cbr 1000 ------- 0 0.0 2.0 42 42
+ 0.31 0 1 cbr 500 ------- 0 0.0 2.0 43 43
r 0.310857 1 2 cbr 1000 ------- 0 0.0 2.0 24 24
- 0.312286 1 2 cbr 500 ------- 0 0.0 2.0 27 27
- 0.316 0 1 cbr 500 ------- 0 0.0 2.0 39 39
r 0.318 0 1 cbr 1000 ------- 0 0.0 2.0 36 36
+ 0.318 1 2 cbr 1000 ------- 0 0.0 2.0 36 36
- 0.318 1 2 cbr 1000 ------- 0 0.0 2.0 30 30
+ 0.32 0 1 cbr 1000 ------- 0 0.0 2.0 44 44
+ 0.32 0 1 cbr 500 ------- 0 0.0 2.0 45 45
d 0.32 0 1 cbr 500 ------- 0 0.0 2.0 45 45
- 0.32 0 1 cbr 1000 ------- 0 0.0 2.0 40 40
r 0.322286 1 2 cbr 1000 ------- 0 0.0 2.0 26 26
r 0.326 0 1 cbr 1000 ------- 0 0.0 2.0 38 38
+ 0.326 1 2 cbr 1000 ------- 0 0.0 2.0 38 38
- 0.328 0 1 cbr 1000 ------- 0 0.0 2.0 42 42
r 0.328 1 2 cbr 500 ------- 0 0.0 2.0 27 27
- 0.329429 1 2 cbr 500 ------- 0 0.0 2.0 31 31
r 0.33 0 1 cbr 500 ------- 0 0.0 2.0 39 39
+ 0.33 1 2 cbr 500 ------- 0 0.0 2.0 39 39
+ 0.33 0 1 cbr 1000 ------- 0 0.0 2.0 46 46
+ 0.33 0 1 cbr 500 ------- 0 0.0 2.0 47 47
- 0.335143 1 2 cbr 1000 ------- 0 0.0 2.0 34 34
- 0.336 0 1 cbr 500 ------- 0 0.0 2.0 43 43
r 0.338 0 1 cbr 1000 ------- 0 0.0 2.0 40 40
+ 0.338 1 2 cbr 1000 ------- 0 0.0 2.0 40 40
r 0.339429 1 2 cbr 1000 ------- 0 0.0 2.0 30 30
+ 0.34 0 1 cbr 1000 ------- 0 0.0 2.0 48 48
+ 0.34 0 1 cbr 500 ------- 0 0.0 2.0 49 49
d 0.34 0 1 cbr 500 ------- 0 0.0 2.0 49 49
- 0.34 0 1 cbr 1000 ------- 0 0.0 2.0 44 44
r 0.345143 1 2 cbr 500 ------- 0 0.0 2.0 31 31
r 0.346 0 1 cbr 1000 ------- 0 0.0 2.0 42 42
+ 0.346 1 2 cbr 1000 ------- 0 0.0 2.0 42 42
d 0.346 1 2 cbr 1000 ------- 0 0.0 2.0 42 42
- 0.346571 1 2 cbr 1000 ------- 0 0.0 2.0 36 36
- 0.348 0 1 cbr 1000 ------- 0 0.0 2.0 46 46
r 0.35 0 1 cbr 500 ------- 0 0.0 2.0 43 43
+ 0.35 1 2 cbr 500 ------- 0 0.0 2.0 43 43
+ 0.35 0 1 cbr 1000 ------- 0 0.0 2.0 50 50
+ 0.35 0 1 cbr 500 ------- 0 0.0 2.0 51 51
- 0.356 0 1 cbr 500 ------- 0 0.0 2.0 47 47
r 0.356571 1 2 cbr 1000 ------- 0 0.0 2.0 34 34
r 0.358 0 1 cbr 1000 ------- 0 0.0 2.0 44 44
+ 0.358 1 2 cbr 1000 ------- 0 0.0 2.0 44 44
d 0.358 1 2 cbr 1000 ------- 0 0.0 2.0 44 44
- 0.358 1 2 cbr 1000 ------- 0 0.0 2.0 38 38
+ 0.36 0 1 cbr 1000 ------- 0 0.0 2.0 52 52
+ 0.36 0 1 cbr 500 ------- 0 0.0 2.0 53 53
d 0.36 0 1 cbr 500 ------- 0 0.0 2.0 53 53
- 0.36 0 1 cbr 1000 ------- 0 0.0 2.0 48 48
r 0.366 0 1 cbr 1000 ------- 0 0.0 2.0 46 46
+ 0.366 1 2 cbr 1000 ------- 0 0.0 2.0 46 46
- 0.368 0 1 cbr 1000 ------- 0 0.0 2.0 50 50
r 0.368 1 2 cbr 1000 ------- 0 0.0 2.0 36 36
- 0.369429 1 2 cbr 500 ------- 0 0.0 2.0 39 39
r 0.37 0 1 cbr 500 ------- 0 0.0 2.0 47 47
+ 0.37 1 2 cbr 500 ------- 0 0.0 2.0 47 47
+ 0.37 0 1 cbr 1000 ------- 0 0.0 2.0 54 54
+ 0.37 0 1 cbr 500 ------- 0 0.0 2.0 55 55
- 0.375143 1 2 cbr 1000 ------- 0 0.0 2.0 40 40
- 0.376 0 1 cbr 500 ------- 0 0.0 2.0 51 51
r 0.378 0 1 cbr 1000 ------- 0 0.0 2.0 48 48
+ 0.378 1 2 cbr 1000 ------- 0 0.0 2.0 48 48
r 0.379429 1 2 cbr 1000 ------- 0 0.0 2.0 38 38
+ 0.38 0 1 cbr 1000 ------- 0 0.0 2.0 56 56
+ 0.38 0 1 cbr 500 ------- 0 0.0 2.0 57 57
d 0.38 0 1 cbr 500 ------- 0 0.0 2.0 57 57
- 0.38 0 1 cbr 1000 ------- 0 0.0 2.0 52 52
r 0.385143 1 2 cbr 500 ------- 0 0.0 2.0 39 39
r 0.386 0 1 cbr 1000 ------- 0 0.0 2.0 50 50
+ 0.386 1 2 cbr 1000 ------- 0 0.0 2.0 50 50
d 0.386 1 2 cbr 1000 ------- 0 0.0 2.0 50 50
- 0.386571 1 2 cbr 500 ------- 0 0.0 2.0 43 43
- 0.388 0 1 cbr 1000 ------- 0 0.0 2.0 54 54
r 0.39 0 1 cbr 500 ------- 0 0.0 2.0 51 51
+ 0.39 1 2 cbr 500 ------- 0 0.0 2.0 51 51
+ 0.39 0 1 cbr 1000 ------- 0 0.0 2.0 58 58
+ 0.39 0 1 cbr 500 ------- 0 0.0 2.0 59 59
- 0.392286 1 2 cbr 1000 ------- 0 0.0 2.0 46 46
- 0.396 0 1 cbr 500 ------- 0 0.0 2.0 55 55
r 0.396571 1 2 cbr 1000 ------- 0 0.0 2.0 40 40
r 0.398 0 1 cbr 1000 ------- 0 0.0 2.0 52 52
+ 0.398 1 2 cbr 1000 ------- 0 0.0 2.0 52 52
+ 0.4 0 1 cbr 1000 ------- 0 0.0 2.0 60 60
+ 0.4 0 1 cbr 500 ------- 0 0.0 2.0 61 61
d 0.4 0 1 cbr 500 ------- 0 0.0 2.0 61 61
- 0.4 0 1 cbr 1000 ------- 0 0.0 2.0 56 56
r 0.402286 1 2 cbr 500 ------- 0 0.0 2.0 43 43
- 0.403714 1 2 cbr 500 ------- 0 0.0 2.0 47 47
r 0.406 0 1 cbr 1000 ------- 0 0.0 2.0 54 54
+ 0.406 1 2 cbr 1000 ------- 0 0.0 2.0 54 54
- 0.408 0 1 cbr 1000 ------- 0 0.0 2.0 58 58
- 0.409429 1 2 cbr 1000 ------- 0 0.0 2.0 48 48
r 0.41 0 1 cbr 500 ------- 0 0.0 2.0 55 55
+ 0.41 1 2 cbr 500 ------- 0 0.0 2.0 55 55
+ 0.41 0 1 cbr 1000 ------- 0 0.0 2.0 62 62
+ 0.41 0 1 cbr 500 ------- 0 0.0 2.0 63 63
r 0.413714 1 2 cbr 1000 ------- 0 0.0 2.0 46 46
- 0.416 0 1 cbr 500 ------- 0 0.0 2.0 59 59
r 0.418 0 1 cbr 1000 ------- 0 0.0 2.0 56 56
+ 0.418 1 2 cbr 1000 ------- 0 0.0 2.0 56 56
d 0.418 1 2 cbr 1000 ------- 0 0.0 2.0 56 56
r 0.419429 1 2 cbr 500 ------- 0 0.0 2.0 47 47
+ 0.42 0 1 cbr 1000 ------- 0 0.0 2.0 64 64
+ 0.42 0 1 cbr 500 ------- 0 0.0 2.0 65 65
d 0.42 0 1 cbr 500 ------- 0 0.0 2.0 65 65
- 0.42 0 1 cbr 1000 ------- 0 0.0 2.0 60 60
- 0.420857 1 2 cbr 500 ------- 0 0.0 2.0 51 51
r 0.426 0 1 cbr 1000 ------- 0 0.0 2.0 58 58
+ 0.426 1 2 cbr 1000 ------- 0 0.0 2.0 58 58
- 0.426571 1 2 cbr 1000 ------- 0 0.0 2.0 52 52
- 0.428 0 1 cbr 1000 ------- 0 0.0 2.0 62 62
r 0.43 0 1 cbr 500 ------- 0 0.0 2.0 59 59
+ 0.43 1 2 cbr 500 ------- 0 0.0 2.0 59 59
+ 0.43 0 1 cbr 1000 ------- 0 0.0 2.0 66 66
+ 0.43 0 1 cbr 500 ------- 0 0.0 2.0 67 67
r 0.430857 1 2 cbr 1000 ------- 0 0.0 2.0 48 48
- 0.436 0 1 cbr 500 ------- 0 0.0 2.0 63 63
r 0.436571 1 2 cbr 500 ------- 0 0.0 2.0 51 51
r 0.438 0 1 cbr 1000 ------- 0 0.0 2.0 60 60
+ 0.438 1 2 cbr 1000 ------- 0 0.0 2.0 60 60
d 0.438 1 2 cbr 1000 ------- 0 0.0 2.0 60 60
- 0.438 1 2 cbr 1000 ------- 0 0.0 2.0 54 54
+ 0.44 0 1 cbr 1000 ------- 0 0.0 2.0 68 68
+ 0.44 0 1 cbr 500 ------- 0 0.0 2.0 69 69
d 0.44 0 1 cbr 500 ------- 0 0.0 2.0 69 69
- 0.44 0 1 cbr 1000 ------- 0 0.0 2.0 64 64
r 0.446 0 1 cbr 1000 ------- 0 0.0 2.0 62 62
+ 0.446 1 2 cbr 1000 ------- 0 0.0 2.0 62 62
- 0.448 0 1 cbr 1000 ------- 0 0.0 2.0 66 66
r 0.448 1 2 cbr 1000 ------- 0 0.0 2.0 52 52
- 0.449429 1 2 cbr 500 ------- 0 0.0 2.0 55 55
r 0.45 0 1 cbr 500 ------- 0 0.0 2.0 63 63
+ 0.45 1 2 cbr 500 ------- 0 0.0 2.0 63 63
+ 0.45 0 1 cbr 1000 ------- 0 0.0 2.0 70 70
+ 0.45 0 1 cbr 500 ------- 0 0.0 2.0 71 71
- 0.455143 1 2 cbr 1000 ------- 0 0.0 2.0 58 58
- 0.456 0 1 cbr 500 ------- 0 0.0 2.0 67 67
r 0.458 0 1 cbr 1000 ------- 0 0.0 2.0 64 64
+ 0.458 1 2 cbr 1000 ------- 0 0.0 2.0 64 64
r 0.459429 1 2 cbr 1000 ------- 0 0.0 2.0 54 54
+ 0.46 0 1 cbr 1000 ------- 0 0.0 2.0 72 72
+ 0.46 0 1 cbr 500 ------- 0 0.0 2.0 73 73
d 0.46 0 1 cbr 500 ------- 0 0.0 2.0 73 73
- 0.46 0 1 cbr 1000 ------- 0 0.0 2.0 68 68
r 0.465143 1 2 cbr 500 ------- 0 0.0 2.0 55 55
r 0.466 0 1 cbr 1000 ------- 0 0.0 2.0 66 66
+ 0.466 1 2 cbr 1000 ------- 0 0.0 2.0 66 66
d 0.466 1 2 cbr 1000 ------- 0 0.0 2.0 66 66
- 0.466571 1 2 cbr 500 ------- 0 0.0 2.0 59 59
- 0.468 0 1 cbr 1000 ------- 0 0.0 2.0 70 70
r 0.47 0 1 cbr 500 ------- 0 0.0 2.0 67 67
+ 0.47 1 2 cbr 500 ------- 0 0.0 2.0 67 67
+ 0.47 0 1 cbr 1000 ------- 0 0.0 2.0 74 74
+ 0.47 0 1 cbr 500 ------- 0 0.0 2.0 75 75
- 0.472286 1 2 cbr 1000 ------- 0 0.0 2.0 62 62
- 0.476 0 1 cbr 500 ------- 0 0.0 2.0 71 71
r 0.476571 1 2 cbr 1000 ------- 0 0.0 2.0 58 58
r 0.478 0 1 cbr 1000 ------- 0 0.0 2.0 68 68
+ 0.478 1 2 cbr 1000 ------- 0 0.0 2.0 68 68
+ 0.48 0 1 cbr 1000 ------- 0 0.0 2.0 76 76
+ 0.48 0 1 cbr 500 ------- 0 0.0 2.0 77 77
d 0.48 0 1 cbr 500 ------- 0 0.0 2.0 77 77
- 0.48 0 1 cbr 1000 ------- 0 0.0 2.0 72 72
r 0.482286 1 2 cbr 500 ------- 0 0.0 2.0 59 59
- 0.483714 1 2 cbr 500 ------- 0 0.0 2.0 63 63
r 0.486 0 1 cbr 1000 ------- 0 0.0 2.0 70 70
+ 0.486 1 2 cbr 1000 ------- 0 0.0 2.0 70 70
- 0.488 0 1 cbr 1000 ------- 0 0.0 2.0 74 74
- 0.489429 1 2 cbr 1000 ------- 0 0.0 2.0 64 64
r 0.49 0 1 cbr 500 ------- 0 0.0 2.0 71 71
+ 0.49 1 2 cbr 500 ------- 0 0.0 2.0 71 71
+ 0.49 0 1 cbr 1000 ------- 0 0.0 2.0 78 78
+ 0.49 0 1 cbr 500 ------- 0 0.0 2.0 79 79
r 0.493714 1 2 cbr 1000 ------- 0 0.0 2.0 62 62
- 0.496 0 1 cbr 500 ------- 0 0.0 2.0 75 75
r 0.498 0 1 cbr 1000 ------- 0 0.0 2.0 72 72
+ 0.498 1 2 cbr 1000 ------- 0 0.0 2.0 72 72
d 0.498 1 2 cbr 1000 ------- 0 0.0 2.0 72 72
r 0.499429 1 2 cbr 500 ------- 0 0.0 2.0 63 63
+ 0.5 0 1 cbr 1000 ------- 0 0.0 2.0 80 80
+ 0.5 0 1 cbr 500 ------- 0 0.0 2.0 81 81
d 0.5 0 1 cbr 500 ------- 0 0.0 2.0 81 81
- 0.5 0 1 cbr 1000 ------- 0 0.0 2.0 76 76
- 0.500857 1 2 cbr 500 ------- 0 0.0 2.0 67 67
r 0.506 0 1 cbr 1000 ------- 0 0.0 2.0 74 74
+ 0.506 1 2 cbr 1000 ------- 0 0.0 2.0 74 74
- 0.506571 1 2 cbr 1000 ------- 0 0.0 2.0 68 68
- 0.508 0 1 cbr 1000 ------- 0 0.0 2.0 78 78
r 0.51 0 1 cbr 500 ------- 0 0.0 2.0 75 75
+ 0.51 1 2 cbr 500 ------- 0 0.0 2.0 75 75
+ 0.51 0 1 cbr 1000 ------- 0 0.0 2.0 82 82
+ 0.51 0 1 cbr 500 ------- 0 0.0 2.0 83 83
r 0.510857 1 2 cbr 1000 ------- 0 0.0 2.0 64 64
- 0.516 0 1 cbr 500 ------- 0 0.0 2.0 79 79
r 0.516571 1 2 cbr 500 ------- 0 0.0 2.0 67 67
r 0.518 0 1 cbr 1000 ------- 0 0.0 2.0 76 76
+ 0.518 1 2 cbr 1000 ------- 0 0.0 2.0 76 76
d 0.518 1 2 cbr 1000 ------- 0 0.0 2.0 76 76
- 0.518 1 2 cbr 1000 ------- 0 0.0 2.0 70 70
+ 0.52 0 1 cbr 1000 ------- 0 0.0 2.0 84 84
+ 0.52 0 1 cbr 500 ------- 0 0.0 2.0 85 85
d 0.52 0 1 cbr 500 ------- 0 0.0 2.0 85 85
- 0.52 0 1 cbr 1000 ------- 0 0.0 2.0 80 80
r 0.526 0 1 cbr 1000 ------- 0 0.0 2.0 78 78
+ 0.526 1 2 cbr 1000 ------- 0 0.0 2.0 78 78
- 0.528 0 1 cbr 1000 ------- 0 0.0 2.0 82 82
r 0.528 1 2 cbr 1000 ------- 0 0.0 2.0 68 68
- 0.529429 1 2 cbr 500 ------- 0 0.0 2.0 71 71
r 0.53 0 1 cbr 500 ------- 0 0.0 2.0 79 79
+ 0.53 1 2 cbr 500 ------- 0 0.0 2.0 79 79
+ 0.53 0 1 cbr 1000 ------- 0 0.0 2.0 86 86
+ 0.53 0 1 cbr 500 ------- 0 0.0 2.0 87 87
- 0.535143 1 2 cbr 1000 ------- 0 0.0 2.0 74 74
- 0.536 0 1 cbr 500 ------- 0 0.0 2.0 83 83
r 0.538 0 1 cbr 1000 ------- 0 0.0 2.0 80 80
+ 0.538 1 2 cbr 1000 ------- 0 0.0 2.0 80 80
r 0.539429 1 2 cbr 1000 ------- 0 0.0 2.0 70 70
+ 0.54 0 1 cbr 1000 ------- 0 0.0 2.0 88 88
+ 0.54 0 1 cbr 500 ------- 0 0.0 2.0 89 89
d 0.54 0 1 cbr 500 ------- 0 0.0 2.0 89 89
- 0.54 0 1 cbr 1000 ------- 0 0.0 2.0 84 84
r 0.545143 1 2 cbr 500 ------- 0 0.0 2.0 71 71
r 0.546 0 1 cbr 1000 ------- 0 0.0 2.0 82 82
+ 0.546 1 2 cbr 1000 ------- 0 0.0 2.0 82 82
d 0.546 1 2 cbr 1000 ------- 0 0.0 2.0 82 82
- 0.546571 1 2 cbr 500 ------- 0 0.0 2.0 75 75
- 0.548 0 1 cbr 1000 ------- 0 0.0 2.0 86 86
r 0.55 0 1 cbr 500 ------- 0 0.0 2.0 83 83
+ 0.55 1 2 cbr 500 ------- 0 0.0 2.0 83 83
+ 0.55 0 1 cbr 1000 ------- 0 0.0 2.0 90 90
+ 0.55 0 1 cbr 500 ------- 0 0.0 2.0 91 91
- 0.552286 1 2 cbr 1000 ------- 0 0.0 2.0 78 78
- 0.556 0 1 cbr 500 ------- 0 0.0 2.0 87 87
r 0.556571 1 2 cbr 1000 ------- 0 0.0 2.0 74 74
r 0.558 0 1 cbr 1000 ------- 0 0.0 2.0 84 84
+ 0.558 1 2 cbr 1000 ------- 0 0.0 2.0 84 84
+ 0.56 0 1 cbr 1000 ------- 0 0.0 2.0 92 92
+ 0.56 0 1 cbr 500 ------- 0 0.0 2.0 93 93
d 0.56 0 1 cbr 500 ------- 0 0.0 2.0 93 93
- 0.56 0 1 cbr 1000 ------- 0 0.0 2.0 88 88
r 0.562286 1 2 cbr 500 ------- 0 0.0 2.0 75 75
- 0.563714 1 2 cbr 500 ------- 0 0.0 2.0 79 79
r 0.566 0 1 cbr 1000 ------- 0 0.0 2.0 86 86
+ 0.566 1 2 cbr 1000 ------- 0 0.0 2.0 86 86
- 0.568 0 1 cbr 1000 ------- 0 0.0 2.0 90 90
- 0.569429 1 2 cbr 1000 ------- 0 0.0 2.0 80 80
r 0.57 0 1 cbr 500 ------- 0 0.0 2.0 87 87
+ 0.57 1 2 cbr 500 ------- 0 0.0 2.0 87 87
+ 0.57 0 1 cbr 1000 ------- 0 0.0 2.0 94 94
+ 0.57 0 1 cbr 500 ------- 0 0.0 2.0 95 95
r 0.573714 1 2 cbr 1000 ------- 0 0.0 2.0 78 78
- 0.576 0 1 cbr 500 ------- 0 0.0 2.0 91 91
r 0.578 0 1 cbr 1000 ------- 0 0.0 2.0 88 88
+ 0.578 1 2 cbr 1000 ------- 0 0.0 2.0 88 88
d 0.578 1 2 cbr 1000 ------- 0 0.0 2.0 88 88
r 0.579429 1 2 cbr 500 ------- 0 0.0 2.0 79 79
+ 0.58 0 1 cbr 1000 ------- 0 0.0 2.0 96 96
+ 0.58 0 1 cbr 500 ------- 0 0.0 2.0 97 97
d 0.58 0 1 cbr 500 ------- 0 0.0 2.0 97 97
- 0.58 0 1 cbr 1000 ------- 0 0.0 2.0 92 92
- 0.580857 1 2 cbr 500 ------- 0 0.0 2.0 83 83
r 0.586 0 1 cbr 1000 ------- 0 0.0 2.0 90 90
+ 0.586 1 2 cbr 1000 ------- 0 0.0 2.0 90 90
- 0.586571 1 2 cbr 1000 ------- 0 0.0 2.0 84 84
- 0.588 0 1 cbr 1000 ------- 0 0.0 2.0 94 94
r 0.59 0 1 cbr 500 ------- 0 0.0 2.0 91 91
+ 0.59 1 2 cbr 500 ------- 0 0.0 2.0 91 91
+ 0.59 0 1 cbr 1000 ------- 0 0.0 2.0 98 98
+ 0.59 0 1 cbr 500 ------- 0 0.0 2.0 99 99
r 0.590857 1 2 cbr 1000 ------- 0 0.0 2.0 80 80
- 0.596 0 1 cbr 500 ------- 0 0.0 2.0 95 95
r 0.596571 1 2 cbr 500 ------- 0 0.0 2.0 83 83
r 0.598 0 1 cbr 1000 ------- 0 0.0 2.0 92 92
+ 0.598 1 2 cbr 1000 ------- 0 0.0 2.0 92 92
d 0.598 1 2 cbr 1000 ------- 0 0.0 2.0 92 92
- 0.598 1 2 cbr 1000 ------- 0 0.0 2.0 86 86
+ 0.6 0 1 cbr 1000 ------- 0 0.0 2.0 100 100
+ 0.6 0 1 cbr 500 ------- 0 0.0 2.0 101 101
d 0.6 0 1 cbr 500 ------- 0 0.0 2.0 101 101
- 0.6 0 1 cbr 1000 ------- 0 0.0 2.0 96 96
r 0.606 0 1 cbr 1000 ------- 0 0.0 2.0 94 94
+ 0.606 1 2 cbr 1000 ------- 0 0.0 2.0 94 94
- 0.608 0 1 cbr 1000 ------- 0 0.0 2.0 98 98
r 0.608 1 2 cbr 1000 ------- 0 0.0 2.0 84 84
- 0.609429 1 2 cbr 500 ------- 0 0.0 2.0 87 87
r 0.61 0 1 cbr 500 ------- 0 0.0 2.0 95 95
+ 0.61 1 2 cbr 500 ------- 0 0.0 2.0 95 95
+ 0.61 0 1 cbr 1000 ------- 0 0.0 2.0 102 102
+ 0.61 0 1 cbr 500 ------- 0 0.0 2.0 103 103
- 0.615143 1 2 cbr 1000 ------- 0 0.0 2.0 90 90
- 0.616 0 1 cbr 500 ------- 0 0.0 2.0 99 99
r 0.618 0 1 cbr 1000 ------- 0 0.0 2.0 96 96
+ 0.618 1 2 cbr 1000 ------- 0 0.0 2.0 96 96
r 0.619429 1 2 cbr 1000 ------- 0 0.0 2.0 86 86
+ 0.62 0 1 cbr 1000 ------- 0 0.0 2.0 104 104
+ 0.62 0 1 cbr 500 ------- 0 0.0 2.0 105 105
d 0.62 0 1 cbr 500 ------- 0 0.0 2.0 105 105
- 0.62 0 1 cbr 1000 ------- 0 0.0 2.0 100 100
r 0.625143 1 2 cbr 500 ------- 0 0.0 2.0 87 87
r 0.626 0 1 cbr 1000 ------- 0 0.0 2.0 98 98
+ 0.626 1 2 cbr 1000 ------- 0 0.0 2.0 98 98
d 0.626 1 2 cbr 1000 ------- 0 0.0 2.0 98 98
- 0.626571 1 2 cbr 500 ------- 0 0.0 2.0 91 91
- 0.628 0 1 cbr 1000 ------- 0 0.0 2.0 102 102
r 0.63 0 1 cbr 500 ------- 0 0.0 2.0 99 99
+ 0.63 1 2 cbr 500 ------- 0 0.0 2.0 99 99
+ 0.63 0 1 cbr 1000 ------- 0 0.0 2.0 106 106
+ 0.63 0 1 cbr 500 ------- 0 0.0 2.0 107 107
- 0.632286 1 2 cbr 1000 ------- 0 0.0 2.0 94 94
- 0.636 0 1 cbr 500 ------- 0 0.0 2.0 103 103
r 0.636571 1 2 cbr 1000 ------- 0 0.0 2.0 90 90
r 0.638 0 1 cbr 1000 ------- 0 0.0 2.0 100 100
+ 0.638 1 2 cbr 1000 ------- 0 0.0 2.0 100 100
+ 0.64 0 1 cbr 1000 ------- 0 0.0 2.0 108 108
+ 0.64 0 1 cbr 500 ------- 0 0.0 2.0 109 109
d 0.64 0 1 cbr 500 ------- 0 0.0 2.0 109 109
- 0.64 0 1 cbr 1000 ------- 0 0.0 2.0 104 104
r 0.642286 1 2 cbr 500 ------- 0 0.0 2.0 91 91
- 0.643714 1 2 cbr 500 ------- 0 0.0 2.0 95 95
r 0.646 0 1 cbr 1000 ------- 0 0.0 2.0 102 102
+ 0.646 1 2 cbr 1000 ------- 0 0.0 2.0 102 102
- 0.648 0 1 cbr 1000 ------- 0 0.0 2.0 106 106
- 0.649429 1 2 cbr 1000 ------- 0 0.0 2.0 96 96
r 0.65 0 1 cbr 500 ------- 0 0.0 2.0 103 103
+ 0.65 1 2 cbr 500 ------- 0 0.0 2.0 103 103
+ 0.65 0 1 cbr 1000 ------- 0 0.0 2.0 110 110
+ 0.65 0 1 cbr 500 ------- 0 0.0 2.0 111 111
r 0.653714 1 2 cbr 1000 ------- 0 0.0 2.0 94 94
- 0.656 0 1 cbr 500 ------- 0 0.0 2.0 107 107
r 0.658 0 1 cbr 1000 ------- 0 0.0 2.0 104 104
+ 0.658 1 2 cbr 1000 ------- 0 0.0 2.0 104 104
d 0.658 1 2 cbr 1000 ------- 0 0.0 2.0 104 104
r 0.659429 1 2 cbr 500 ------- 0 0.0 2.0 95 95
+ 0.66 0 1 cbr 1000 ------- 0 0.0 2.0 112 112
+ 0.66 0 1 cbr 500 ------- 0 0.0 2.0 113 113
d 0.66 0 1 cbr 500 ------- 0 0.0 2.0 113 113
- 0.66 0 1 cbr 1000 ------- 0 0.0 2.0 108 108
- 0.660857 1 2 cbr 500 ------- 0 0.0 2.0 99 99
r 0.666 0 1 cbr 1000 ------- 0 0.0 2.0 106 106
+ 0.666 1 2 cbr 1000 ------- 0 0.0 2.0 106 106
- 0.666571 1 2 cbr 1000 ------- 0 0.0 2.0 100 100
- 0.668 0 1 cbr 1000 ------- 0 0.0 2.0 110 110
r 0.67 0 1 cbr 500 ------- 0 0.0 2.0 107 107
+ 0.67 1 2 cbr 500 ------- 0 0.0 2.0 107 107
+ 0.67 0 1 cbr 1000 ------- 0 0.0 2.0 114 114
+ 0.67 0 1 cbr 500 ------- 0 0.0 2.0 115 115
r 0.670857 1 2 cbr 1000 ------- 0 0.0 2.0 96 96
- 0.676 0 1 cbr 500 ------- 0 0.0 2.0 111 111
r 0.676571 1 2 cbr 500 ------- 0 0.0 2.0 99 99
r 0.678 0 1 cbr 1000 ------- 0 0.0 2.0 108 108
+ 0.678 1 2 cbr 1000 ------- 0 0.0 2.0 108 108
d 0.678 1 2 cbr 1000 ------- 0 0.0 2.0 108 108
- 0.678 1 2 cbr 1000 ------- 0 0.0 2.0 102 102
+ 0.68 0 1 cbr 1000 ------- 0 0.0 2.0 116 116
+ 0.68 0 1 cbr 500 ------- 0 0.0 2.0 117 117
d 0.68 0 1 cbr 500 ------- 0 0.0 2.0 117 117
- 0.68 0 1 cbr 1000 ------- 0 0.0 2.0 112 112
r 0.686 0 1 cbr 1000 ------- 0 0.0 2.0 110 110
+ 0.686 1 2 cbr 1000 ------- 0 0.0 2.0 110 110
r 0.688 1 2 cbr 1000 ------- 0 0.0 2.0 100 100
- 0.688 0 1 cbr 1000 ------- 0 0.0 2.0 114 114
- 0.689429 1 2 cbr 500 ------- 0 0.0 2.0 103 103
r 0.69 0 1 cbr 500 ------- 0 0.0 2.0 111 111
+ 0.69 1 2 cbr 500 ------- 0 0.0 2.0 111 111
+ 0.69 0 1 cbr 1000 ------- 0 0.0 2.0 118 118
+ 0.69 0 1 cbr 500 ------- 0 0.0 2.0 119 119
- 0.695143 1 2 cbr 1000 ------- 0 0.0 2.0 106 106
- 0.696 0 1 cbr 500 ------- 0 0.0 2.0 115 115
r 0.698 0 1 cbr 1000 ------- 0 0.0 2.0 112 112
+ 0.698 1 2 cbr 1000 ------- 0 0.0 2.0 112 112
r 0.699429 1 2 cbr 1000 ------- 0 0.0 2.0 102 102
+ 0.7 0 1 cbr 1000 ------- 0 0.0 2.0 120 120
+ 0.7 0 1 cbr 500 ------- 0 0.0 2.0 121 121
d 0.7 0 1 cbr 500 ------- 0 0.0 2.0 121 121
- 0.7 0 1 cbr 1000 ------- 0 0.0 2.0 116 116
r 0.705143 1 2 cbr 500 ------- 0 0.0 2.0 103 103
r 0.706 0 1 cbr 1000 ------- 0 0.0 2.0 114 114
+ 0.706 1 2 cbr 1000 ------- 0 0.0 2.0 114 114
d 0.706 1 2 cbr 1000 ------- 0 0.0 2.0 114 114
- 0.706571 1 2 cbr 500 ------- 0 0.0 2.0 107 107
- 0.708 0 1 cbr 1000 ------- 0 0.0 2.0 118 118
r 0.71 0 1 cbr 500 ------- 0 0.0 2.0 115 115
+ 0.71 1 2 cbr 500 ------- 0 0.0 2.0 115 115
+ 0.71 0 1 cbr 1000 ------- 0 0.0 2.0 122 122
+ 0.71 0 1 cbr 500 ------- 0 0.0 2.0 123 123
- 0.712286 1 2 cbr 1000 ------- 0 0.0 2.0 110 110
- 0.716 0 1 cbr 500 ------- 0 0.0 2.0 119 119
r 0.716571 1 2 cbr 1000 ------- 0 0.0 2.0 106 106
r 0.718 0 1 cbr 1000 ------- 0 0.0 2.0 116 116
+ 0.718 1 2 cbr 1000 ------- 0 0.0 2.0 116 116
+ 0.72 0 1 cbr 1000 ------- 0 0.0 2.0 124 124
+ 0.72 0 1 cbr 500 ------- 0 0.0 2.0 125 125
d 0.72 0 1 cbr 500 ------- 0 0.0 2.0 125 125
- 0.72 0 1 cbr 1000 ------- 0 0.0 2.0 120 120
r 0.722286 1 2 cbr 500 ------- 0 0.0 2.0 107 107
- 0.723714 1 2 cbr 500 ------- 0 0.0 2.0 111 111
r 0.726 0 1 cbr 1000 ------- 0 0.0 2.0 118 118
+ 0.726 1 2 cbr 1000 ------- 0 0.0 2.0 118 118
- 0.728 0 1 cbr 1000 ------- 0 0.0 2.0 122 122
- 0.729429 1 2 cbr 1000 ------- 0 0.0 2.0 112 112
r 0.73 0 1 cbr 500 ------- 0 0.0 2.0 119 119
+ 0.73 1 2 cbr 500 ------- 0 0.0 2.0 119 119
+ 0.73 0 1 cbr 1000 ------- 0 0.0 2.0 126 126
+ 0.73 0 1 cbr 500 ------- 0 0.0 2.0 127 127
r 0.733714 1 2 cbr 1000 ------- 0 0.0 2.0 110 110
- 0.736 0 1 cbr 500 ------- 0 0.0 2.0 123 123
r 0.738 0 1 cbr 1000 ------- 0 0.0 2.0 120 120
+ 0.738 1 2 cbr 1000 ------- 0 0.0 2.0 120 120
d 0.738 1 2 cbr 1000 ------- 0 0.0 2.0 120 120
r 0.739429 1 2 cbr 500 ------- 0 0.0 2.0 111 111
+ 0.74 0 1 cbr 1000 ------- 0 0.0 2.0 128 128
+ 0.74 0 1 cbr 500 ------- 0 0.0 2.0 129 129
d 0.74 0 1 cbr 500 ------- 0 0.0 2.0 129 129
- 0.74 0 1 cbr 1000 ------- 0 0.0 2.0 124 124
- 0.740857 1 2 cbr 500 ------- 0 0.0 2.0 115 115
r 0.746 0 1 cbr 1000 ------- 0 0.0 2.0 122 122
+ 0.746 1 2 cbr 1000 ------- 0 0.0 2.0 122 122
- 0.746571 1 2 cbr 1000 ------- 0 0.0 2.0 116 116
- 0.748 0 1 cbr 1000 ------- 0 0.0 2.0 126 126
r 0.75 0 1 cbr 500 ------- 0 0.0 2.0 123 123
+ 0.75 1 2 cbr 500 ------- 0 0.0 2.0 123 123
+ 0.75 0 1 cbr 1000 ------- 0 0.0 2.0 130 130
+ 0.75 0 1 cbr 500 ------- 0 0.0 2.0 131 131
r 0.750857 1 2 cbr 1000 ------- 0 0.0 2.0 112 112
- 0.756 0 1 cbr 500 ------- 0 0.0 2.0 127 127
r 0.756571 1 2 cbr 500 ------- 0 0.0 2.0 115 115
- 0.758 1 2 cbr 1000 ------- 0 0.0 2.0 118 118
r 0.758 0 1 cbr 1000 ------- 0 0.0 2.0 124 124
+ 0.758 1 2 cbr 1000 ------- 0 0.0 2.0 124 124
+ 0.76 0 1 cbr 1000 ------- 0 0.0 2.0 132 132
+ 0.76 0 1 cbr 500 ------- 0 0.0 2.0 133 133
d 0.76 0 1 cbr 500 ------- 0 0.0 2.0 133 133
- 0.76 0 1 cbr 1000 ------- 0 0.0 2.0 128 128
r 0.766 0 1 cbr 1000 ------- 0 0.0 2.0 126 126
+ 0.766 1 2 cbr 1000 ------- 0 0.0 2.0 126 126
d 0.766 1 2 cbr 1000 ------- 0 0.0 2.0 126 126
r 0.768 1 2 cbr 1000 ------- 0 0.0 2.0 116 116
- 0.768 0 1 cbr 1000 ------- 0 0.0 2.0 130 130
- 0.769429 1 2 cbr 500 ------- 0 0.0 2.0 119 119
r 0.77 0 1 cbr 500 ------- 0 0.0 2.0 127 127
+ 0.77 1 2 cbr 500 ------- 0 0.0 2.0 127 127
+ 0.77 0 1 cbr 1000 ------- 0 0.0 2.0 134 134
+ 0.77 0 1 cbr 500 ------- 0 0.0 2.0 135 135
- 0.775143 1 2 cbr 1000 ------- 0 0.0 2.0 122 122
- 0.776 0 1 cbr 500 ------- 0 0.0 2.0 131 131
r 0.778 0 1 cbr 1000 ------- 0 0.0 2.0 128 128
+ 0.778 1 2 cbr 1000 ------- 0 0.0 2.0 128 128
r 0.779429 1 2 cbr 1000 ------- 0 0.0 2.0 118 118
+ 0.78 0 1 cbr 1000 ------- 0 0.0 2.0 136 136
+ 0.78 0 1 cbr 500 ------- 0 0.0 2.0 137 137
d 0.78 0 1 cbr 500 ------- 0 0.0 2.0 137 137
- 0.78 0 1 cbr 1000 ------- 0 0.0 2.0 132 132
r 0.785143 1 2 cbr 500 ------- 0 0.0 2.0 119 119
r 0.786 0 1 cbr 1000 ------- 0 0.0 2.0 130 130
+ 0.786 1 2 cbr 1000 ------- 0 0.0 2.0 130 130
d 0.786 1 2 cbr 1000 ------- 0 0.0 2.0 130 130
- 0.786571 1 2 cbr 500 ------- 0 0.0 2.0 123 123
- 0.788 0 1 cbr 1000 ------- 0 0.0 2.0 134 134
r 0.79 0 1 cbr 500 ------- 0 0.0 2.0 131 131
+ 0.79 1 2 cbr 500 ------- 0 0.0 2.0 131 131
+ 0.79 0 1 cbr 1000 ------- 0 0.0 2.0 138 138
+ 0.79 0 1 cbr 500 ------- 0 0.0 2.0 139 139
- 0.792286 1 2 cbr 1000 ------- 0 0.0 2.0 124 124
- 0.796 0 1 cbr 500 ------- 0 0.0 2.0 135 135
r 0.796571 1 2 cbr 1000 ------- 0 0.0 2.0 122 122
r 0.798 0 1 cbr 1000 ------- 0 0.0 2.0 132 132
+ 0.798 1 2 cbr 1000 ------- 0 0.0 2.0 132 132
+ 0.8 0 1 cbr 1000 ------- 0 0.0 2.0 140 140
+ 0.8 0 1 cbr 500 ------- 0 0.0 2.0 141 141
d 0.8 0 1 cbr 500 ------- 0 0.0 2.0 141 141
- 0.8 0 1 cbr 1000 ------- 0 0.0 2.0 136 136