V -t * -v 1.0a5 -a 0
A -t * -n 1 -p 0 -o 0x7fffffff -c 30 -a 1
A -t * -h 1 -m 1073741823 -s 0
n -t * -a 0 -s 0 -S UP -v circle -c black -i black
n -t * -a 1 -s 1 -S UP -v circle -c black -i black
n -t * -a 2 -s 2 -S UP -v circle -c black -i black
l -t * -s 0 -d 1 -S UP -r 1000000 -D 0.01 -c black
l -t * -s 1 -d 2 -S UP -r 700000 -D 0.01 -c black
+ -t 0.1 -s 0 -d 1 -p cbr -e 1000 -c 0 -i 0 -a 0 -x {0.0 2.0 0 ------- null}
- -t 0.1 -s 0 -d 1 -p cbr -e 1000 -c 0 -i 0 -a 0 -x {0.0 2.0 0 ------- null}
h -t 0.1 -s 0 -d 1 -p cbr -e 1000 -c 0 -i 0 -a 0 -x {0.0 2.0 -1 ------- null}
+ -t 0.1 -s 0 -d 1 -p cbr -e 500 -c 0 -i 1 -a 0 -x {0.0 2.0 1 ------- null}
- -t 0.108 -s 0 -d 1 -p cbr -e 500 -c 0 -i 1 -a 0 -x {0.0 2.0 1 ------- null}
h -t 0.108 -s 0 -d 1 -p cbr -e 500 -c 0 -i 1 -a 0 -x {0.0 2.0 -1 ------- null}
+ -t 0.11 -s 0 -d 1 -p cbr -e 1000 -c 0 -i 2 -a 0 -x {0.0 2.0 2 ------- null}
+ -t 0.11 -s 0 -d 1 -p cbr -e 500 -c 0 -i 3 -a 0 -x {0.0 2.0 3 ------- null}
- -t 0.112 -s 0 -d 1 -p cbr -e 1000 -c 0 -i 2 -a 0 -x {0.0 2.0 2 ------- null}
h -t 0.112 -s 0 -d 1 -p cbr -e 1000 -c 0 -i 2 -a 0 -x {0.0 2.0 -1 ------- null}
r -t 0.118 -s 0 -d 1 -p cbr -e 1000 -c 0 -i 0 -a 0 -x {0.0 2.0 0 ------- null}
+ -t 0.118 -s 1 -d 2 -p cbr -e 1000 -c 0 -i 0 -a 0 -x {0.0 2.0 0 ------- null}
- -t 0.118 -s 1 -d 2 -p cbr -e 1000 -c 0 -i 0 -a 0 -x {0.0 2.0 0 ------- null}
h -t 0.118 -s 1 -d 2 -p cbr -e 1000 -c 0 -i 0 -a 0 -x {0.0 2.0 -1 ------- null}
+ -t 0.12 -s 0 -d 1 -p cbr -e 1000 -c 0 -i 4 -a 0 -x {0.0 2.0 4 ------- null}
+ -t 0.12 -s 0 -d 1 -p cbr -e 500 -c 0 -i 5 -a 0 -x {0.0 2.0 5 ------- null}
- -t 0.12 -s 0 -d 1 -p cbr -e 500 -c 0 -i 3 -a 0 -x {0.0 2.0 3 ------- null}
h -t 0.12 -s 0 -d 1 -p cbr -e 500 -c 0 -i 3 -a 0 -x {0.0 2.0 -1 ------- null}
r -t 0.122 -s 0 -d 1 -p cbr -e 500 -c 0 -i 1 -a 0 -x {0.0 2.0 1 ------- null}
+ -t 0.122 -s 1 -d 2 -p cbr -e 500 -c 0 -i 1 -a 0 -x {0.0 2.0 1 ------- null}
- -t 0.124 -s 0 -d 1 -p cbr -e 1000 -c 0 -i 4 -a 0 -x {0.0 2.0 4 ------- null}
h -t 0.124 -s 0 -d 1 -p cbr -e 1000 -c 0 -i 4 -a 0 -x {0.0 2.0 -1 ------- null}
- -t 0.129428571428571 -s 1 -d 2 -p cbr -e 500 -c 0 -i 1 -a 0 -x {0.0 2.0 1 ------- null}
h -t 0.129428571428571 -s 1 -d 2 -p cbr -e 500 -c 0 -i 1 -a 0 -x {0.0 2.0 -1 ------- null}
r -t 0.13 -s 0 -d 1 -p cbr -e 1000 -c 0 -i 2 -a 0 -x {0.0 2.0 2 ------- null}
+ -t 0.13 -s 1 -d 2 -p cbr -e 1000 -c 0 -i 2 -a 0 -x {0.0 2.0 2 ------- null}
+ -t 0.13 -s 0 -d 1 -p cbr -e 1000 -c 0 -i 6 -a 0 -x {0.0 2.0 6 ------- null}
+ -t 0.13 -s 0 -d 1 -p cbr -e 500 -c 0 -i 7 -a 0 -x {0.0 2.0 7 ------- null}
- -t 0.132 -s 0 -d 1 -p cbr -e 500 -c 0 -i 5 -a 0 -x {0.0 2.0 5 ------- null}
h -t 0.132 -s 0 -d 1 -p cbr -e 500 -c 0 -i 5 -a 0 -x {0.0 2.0 -1 ------- null}
r -t 0.134 -s 0 -d 1 -p cbr -e 500 -c 0 -i 3 -a 0 -x {0.0 2.0 3 ------- null}
+ -t 0.134 -s 1 -d 2 -p cbr -e 500 -c 0 -i 3 -a 0 -x {0.0 2.0 3 ------- null}
- -t 0.135142857142857 -s 1 -d 2 -p cbr -e 1000 -c 0 -i 2 -a 0 -x {0.0 2.0 2 ------- null}
h -t 0.135142857142857 -s 1 -d 2 -p cbr -e 1000 -c 0 -i 2 -a 0 -x {0.0 2.0 -1 ------- null}
- -t 0.136 -s 0 -d 1 -p cbr -e 1000 -c 0 -i 6 -a 0 -x {0.0 2.0 6 ------- null}
h -t 0.136 -s 0 -d 1 -p cbr -e 1000 -c 0 -i 6 -a 0 -x {0.0 2.0 -1 ------- null}
r -t 0.139428571428571 -s 1 -d 2 -p cbr -e 1000 -c 0 -i 0 -a 0 -x {0.0 2.0 0 ------- null}
+ -t 0.14 -s 0 -d 1 -p cbr -e 1000 -c 0 -i 8 -a 0 -x {0.0 2.0 8 ------- null}
+ -t 0.14 -s 0 -d 1 -p cbr -e 500 -c 0 -i 9 -a 0 -x {0.0 2.0 9 ------- null}
r -t 0.142 -s 0 -d 1 -p cbr -e 1000 -c 0 -i 4 -a 0 -x {0.0 2.0 4 ------- null}
+ -t 0.142 -s 1 -d 2 -p cbr -e 1000 -c 0 -i 4 -a 0 -x {0.0 2.0 4 ------- null}
- -t 0.144 -s 0 -d 1 -p cbr -e 500 -c 0 -i 7 -a 0 -x {0.0 2.0 7 ------- null}
h -t 0.144 -s 0 -d 1 -p cbr -e 500 -c 0 -i 7 -a 0 -x {0.0 2.0 -1 ------- null}
r -t 0.145142857142857 -s 1 -d 2 -p cbr -e 500 -c 0 -i 1 -a 0 -x {0.0 2.0 1 ------- null}
r -t 0.146 -s 0 -d 1 -p cbr -e 500 -c 0 -i 5 -a 0 -x {0.0 2.0 5 ------- null}
+ -t 0.146 -s 1 -d 2 -p cbr -e 500 -c 0 -i 5 -a 0 -x {0.0 2.0 5 ------- null}
- -t 0.146571428571429 -s 1 -d 2 -p cbr -e 500 -c 0 -i 3 -a 0 -x {0.0 2.0 3 ------- null}
h -t 0.146571428571429 -s 1 -d 2 -p cbr -e 500 -c 0 -i 3 -a 0 -x {0.0 2.0 -1 ------- null}
- -t 0.148 -s 0 -d 1 -p cbr -e 1000 -c 0 -i 8 -a 0 -x {0.0 2.0 8 ------- null}
h -t 0.148 -s 0 -d 1 -p cbr -e 1000 -c 0 -i 8 -a 0 -x {0.0 2.0 -1 ------- null}
+ -t 0.15 -s 0 -d 1 -p cbr -e 1000 -c 0 -i 10 -a 0 -x {0.0 2.0 10 ------- null}
+ -t 0.15 -s 0 -d 1 -p cbr -e 500 -c 0 -i 11 -a 0 -x {0.0 2.0 11 ------- null}
- -t 0.152285714285714 -s 1 -d 2 -p cbr -e 1000 -c 0 -i 4 -a 0 -x {0.0 2.0 4 ------- null}
h -t 0.152285714285714 -s 1 -d 2 -p cbr -e 1000 -c 0 -i 4 -a 0 -x {0.0 2.0 -1 ------- null}
r -t 0.154 -s 0 -d 1 -p cbr -e 1000 -c 0 -i 6 -a 0 -x {0.0 2.0 6 ------- null}
+ -t 0.154 -s 1 -d 2 -p cbr -e 1000 -c 0 -i 6 -a 0 -x {0.0 2.0 6 ------- null}
- -t 0.156 -s 0 -d 1 -p cbr -e 500 -c 0 -i 9 -a 0 -x {0.0 2.0 9 ------- null}
h -t 0.156 -s 0 -d 1 -p cbr -e 500 -c 0 -i 9 -a 0 -x {0.0 2.0 -1 ------- null}
r -t 0.156571428571429 -s 1 -d 2 -p cbr -e 1000 -c 0 -i 2 -a 0 -x {0.0 2.0 2 ------- null}
r -t 0.158 -s 0 -d 1 -p cbr -e 500 -c 0 -i 7 -a 0 -x {0.0 2.0 7 ------- null}
+ -t 0.158 -s 1 -d 2 -p cbr -e 500 -c 0 -i 7 -a 0 -x {0.0 2.0 7 ------- null}
+ -t 0.16 -s 0 -d 1 -p cbr -e 1000 -c 0 -i 12 -a 0 -x {0.0 2.0 12 ------- null}
+ -t 0.16 -s 0 -d 1 -p cbr -e 500 -c 0 -i 13 -a 0 -x {0.0 2.0 13 ------- null}
- -t 0.16 -s 0 -d 1 -p cbr -e 1000 -c 0 -i 10 -a 0 -x {0.0 2.0 10 ------- null}
h -t 0.16 -s 0 -d 1 -p cbr -e 1000 -c 0 -i 10 -a 0 -x {0.0 2.0 -1 ------- null}
r -t 0.162285714285714 -s 1 -d 2 -p cbr -e 500 -c 0 -i 3 -a 0 -x {0.0 2.0 3 ------- null}
- -t 0.163714285714286 -s 1 -d 2 -p cbr -e 500 -c 0 -i 5 -a 0 -x {0.0 2.0 5 ------- null}
h -t 0.163714285714286 -s 1 -d 2 -p cbr -e 500 -c 0 -i 5 -a 0 -x {0.0 2.0 -1 ------- null}
r -t 0.166 -s 0 -d 1 -p cbr -e 1000 -c 0 -i 8 -a 0 -x {0.0 2.0 8 ------- null}
+ -t 0.166 -s 1 -d 2 -p cbr -e 1000 -c 0 -i 8 -a 0 -x {0.0 2.0 8 ------- null}
- -t 0.168 -s 0 -d 1 -p cbr -e 500 -c 0 -i 11 -a 0 -x {0.0 2.0 11 ------- null}
h -t 0.168 -s 0 -d 1 -p cbr -e 500 -c 0 -i 11 -a 0 -x {0.0 2.0 -1 ------- null}
- -t 0.169428571428571 -s 1 -d 2 -p cbr -e 1000 -c 0 -i 6 -a 0 -x {0.0 2.0 6 ------- null}
h -t 0.169428571428571 -s 1 -d 2 -p cbr -e 1000 -c 0 -i 6 -a 0 -x {0.0 2.0 -1 ------- null}
+ -t 0.17 -s 0 -d 1 -p cbr -e 1000 -c 0 -i 14 -a 0 -x {0.0 2.0 14 ------- null}
+ -t 0.17 -s 0 -d 1 -p cbr -e 500 -c 0 -i 15 -a 0 -x {0.0 2.0 15 ------- null}
r -t 0.17 -s 0 -d 1 -p cbr -e 500 -c 0 -i 9 -a 0 -x {0.0 2.0 9 ------- null}
+ -t 0.17 -s 1 -d 2 -p cbr -e 500 -c 0 -i 9 -a 0 -x {0.0 2.0 9 ------- null}
- -t 0.172 -s 0 -d 1 -p cbr -e 1000 -c 0 -i 12 -a 0 -x {0.0 2.0 12 ------- null}
h -t 0.172 -s 0 -d 1 -p cbr -e 1000 -c 0 -i 12 -a 0 -x {0.0 2.0 -1 ------- null}
r -t 0.173714285714286 -s 1 -d 2 -p cbr -e 1000 -c 0 -i 4 -a 0 -x {0.0 2.0 4 ------- null}
r -t 0.178 -s 0 -d 1 -p cbr -e 1000 -c 0 -i 10 -a 0 -x {0.0 2.0 10 ------- null}
+ -t 0.178 -s 1 -d 2 -p cbr -e 1000 -c 0 -i 10 -a 0 -x {0.0 2.0 10 ------- null}
r -t 0.179428571428571 -s 1 -d 2 -p cbr -e 500 -c 0 -i 5 -a 0 -x {0.0 2.0 5 ------- null}
+ -t 0.18 -s 0 -d 1 -p cbr -e 1000 -c 0 -i 16 -a 0 -x {0.0 2.0 16 ------- null}
+ -t 0.18 -s 0 -d 1 -p cbr -e 500 -c 0 -i 17 -a 0 -x {0.0 2.0 17 ------- null}
d -t 0.18 -s 0 -d 1 -p cbr -e 500 -c 0 -i 17 -a 0 -x {0.0 2.0 17 ------- null}
- -t 0.18 -s 0 -d 1 -p cbr -e 500 -c 0 -i 13 -a 0 -x {0.0 2.0 13 ------- null}
h -t 0.18 -s 0 -d 1 -p cbr -e 500 -c 0 -i 13 -a 0 -x {0.0 2.0 -1 ------- null}
- -t 0.180857142857143 -s 1 -d 2 -p cbr -e 500 -c 0 -i 7 -a 0 -x {0.0 2.0 7 ------- null}
h -t 0.180857142857143 -s 1 -d 2 -p cbr -e 500 -c 0 -i 7 -a 0 -x {0.0 2.0 -1 ------- null}
r -t 0.182 -s 0 -d 1 -p cbr -e 500 -c 0 -i 11 -a 0 -x {0.0 2.0 11 ------- null}
+ -t 0.182 -s 1 -d 2 -p cbr -e 500 -c 0 -i 11 -a 0 -x {0.0 2.0 11 ------- null}
- -t 0.184 -s 0 -d 1 -p cbr -e 1000 -c 0 -i 14 -a 0 -x {0.0 2.0 14 ------- null}
h -t 0.184 -s 0 -d 1 -p cbr -e 1000 -c 0 -i 14 -a 0 -x {0.0 2.0 -1 ------- null}
- -t 0.186571428571429 -s 1 -d 2 -p cbr -e 1000 -c 0 -i 8 -a 0 -x {0.0 2.0 8 ------- null}
h -t 0.186571428571429 -s 1 -d 2 -p cbr -e 1000 -c 0 -i 8 -a 0 -x {0.0 2.0 -1 ------- null}
r -t 0.19 -s 0 -d 1 -p cbr -e 1000 -c 0 -i 12 -a 0 -x {0.0 2.0 12 ------- null}
+ -t 0.19 -s 1 -d 2 -p cbr -e 1000 -c 0 -i 12 -a 0 -x {0.0 2.0 12 ------- null}
+ -t 0.19 -s 0 -d 1 -p cbr -e 1000 -c 0 -i 18 -a 0 -x {0.0 2.0 18 ------- null}
+ -t 0.19 -s 0 -d 1 -p cbr -e 500 -c 0 -i 19 -a 0 -x {0.0 2.0 19 ------- null}
r -t 0.190857142857143 -s 1 -d 2 -p cbr -e 1000 -c 0 -i 6 -a 0 -x {0.0 2.0 6 ------- null}
- -t 0.192 -s 0 -d 1 -p cbr -e 500 -c 0 -i 15 -a 0 -x {0.0 2.0 15 ------- null}
h -t 0.192 -s 0 -d 1 -p cbr -e 500 -c 0 -i 15 -a 0 -x {0.0 2.0 -1 ------- null}
r -t 0.194 -s 0 -d 1 -p cbr -e 500 -c 0 -i 13 -a 0 -x {0.0 2.0 13 ------- null}
+ -t 0.194 -s 1 -d 2 -p cbr -e 500 -c 0 -i 13 -a 0 -x {0.0 2.0 13 ------- null}
d -t 0.194 -s 1 -d 2 -p cbr -e 500 -c 0 -i 13 -a 0 -x {0.0 2.0 13 ------- null}
- -t 0.196 -s 0 -d 1 -p cbr -e 1000 -c 0 -i 16 -a 0 -x {0.0 2.0 16 ------- null}
h -t 0.196 -s 0 -d 1 -p cbr -e 1000 -c 0 -i 16 -a 0 -x {0.0 2.0 -1 ------- null}
r -t 0.196571428571429 -s 1 -d 2 -p cbr -e 500 -c 0 -i 7 -a 0 -x {0.0 2.0 7 ------- null}
- -t 0.198 -s 1 -d 2 -p cbr -e 500 -c 0 -i 9 -a 0 -x {0.0 2.0 9 ------- null}
h -t 0.198 -s 1 -d 2 -p cbr -e 500 -c 0 -i 9 -a 0 -x {0.0 2.0 -1 ------- null}
+ -t 0.2 -s 0 -d 1 -p cbr -e 1000 -c 0 -i 20 -a 0 -x {0.0 2.0 20 ------- null}
+ -t 0.2 -s 0 -d 1 -p cbr -e 500 -c 0 -i 21 -a 0 -x {0.0 2.0 21 ------- null}
r -t 0.202 -s 0 -d 1 -p cbr -e 1000 -c 0 -i 14 -a 0 -x {0.0 2.0 14 ------- null}
+ -t 0.202 -s 1 -d 2 -p cbr -e 1000 -c 0 -i 14 -a 0 -x {0.0 2.0 14 ------- null}
- -t 0.203714285714286 -s 1 -d 2 -p cbr -e 1000 -c 0 -i 10 -a 0 -x {0.0 2.0 10 ------- null}
h -t 0.203714285714286 -s 1 -d 2 -p cbr -e 1000 -c 0 -i 10 -a 0 -x {0.0 2.0 -1 ------- null}
- -t 0.204 -s 0 -d 1 -p cbr -e 1000 -c 0 -i 18 -a 0 -x {0.0 2.0 18 ------- null}
h -t 0.204 -s 0 -d 1 -p cbr -e 1000 -c 0 -i 18 -a 0 -x {0.0 2.0 -1 ------- null}
r -t 0.206 -s 0 -d 1 -p cbr -e 500 -c 0 -i 15 -a 0 -x {0.0 2.0 15 ------- null}
+ -t 0.206 -s 1 -d 2 -p cbr -e 500 -c 0 -i 15 -a 0 -x {0.0 2.0 15 ------- null}
r -t 0.208 -s 1 -d 2 -p cbr -e 1000 -c 0 -i 8 -a 0 -x {0.0 2.0 8 ------- null}
+ -t 0.21 -s 0 -d 1 -p cbr -e 1000 -c 0 -i 22 -a 0 -x {0.0 2.0 22 ------- null}
+ -t 0.21 -s 0 -d 1 -p cbr -e 500 -c 0 -i 23 -a 0 -x {0.0 2.0 23 ------- null}
d -t 0.21 -s 0 -d 1 -p cbr -e 500 -c 0 -i 23 -a 0 -x {0.0 2.0 23 ------- null}
- -t 0.212 -s 0 -d 1 -p cbr -e 500 -c 0 -i 19 -a 0 -x {0.0 2.0 19 ------- null}
h -t 0.212 -s 0 -d 1 -p cbr -e 500 -c 0 -i 19 -a 0 -x {0.0 2.0 -1 ------- null}
r -t 0.213714285714286 -s 1 -d 2 -p cbr -e 500 -c 0 -i 9 -a 0 -x {0.0 2.0 9 ------- null}
r -t 0.214 -s 0 -d 1 -p cbr -e 1000 -c 0 -i 16 -a 0 -x {0.0 2.0 16 ------- null}
+ -t 0.214 -s 1 -d 2 -p cbr -e 1000 -c 0 -i 16 -a 0 -x {0.0 2.0 16 ------- null}
d -t 0.214 -s 1 -d 2 -p cbr -e 1000 -c 0 -i 16 -a 0 -x {0.0 2.0 16 ------- null}
- -t 0.215142857142857 -s 1 -d 2 -p cbr -e 500 -c 0 -i 11 -a 0 -x {0.0 2.0 11 ------- null}
h -t 0.215142857142857 -s 1 -d 2 -p cbr -e 500 -c 0 -i 11 -a 0 -x {0.0 2.0 -1 ------- null}
- -t 0.216 -s 0 -d 1 -p cbr -e 1000 -c 0 -i 20 -a 0 -x {0.0 2.0 20 ------- null}
h -t 0.216 -s 0 -d 1 -p cbr -e 1000 -c 0 -i 20 -a 0 -x {0.0 2.0 -1 ------- null}
+ -t 0.22 -s 0 -d 1 -p cbr -e 1000 -c 0 -i 24 -a 0 -x {0.0 2.0 24 ------- null}
+ -t 0.22 -s 0 -d 1 -p cbr -e 500 -c 0 -i 25 -a 0 -x {0.0 2.0 25 ------- null}
- -t 0.220857142857143 -s 1 -d 2 -p cbr -e 1000 -c 0 -i 12 -a 0 -x {0.0 2.0 12 ------- null}
h -t 0.220857142857143 -s 1 -d 2 -p cbr -e 1000 -c 0 -i 12 -a 0 -x {0.0 2.0 -1 ------- null}
r -t 0.222 -s 0 -d 1 -p cbr -e 1000 -c 0 -i 18 -a 0 -x {0.0 2.0 18 ------- null}
+ -t 0.222 -s 1 -d 2 -p cbr -e 1000 -c 0 -i 18 -a 0 -x {0.0 2.0 18 ------- null}
- -t 0.224 -s 0 -d 1 -p cbr -e 500 -c 0 -i 21 -a 0 -x {0.0 2.0 21 ------- null}
h -t 0.224 -s 0 -d 1 -p cbr -e 500 -c 0 -i 21 -a 0 -x {0.0 2.0 -1 ------- null}
r -t 0.225142857142857 -s 1 -d 2 -p cbr -e 1000 -c 0 -i 10 -a 0 -x {0.0 2.0 10 ------- null}
r -t 0.226 -s 0 -d 1 -p cbr -e 500 -c 0 -i 19 -a 0 -x {0.0 2.0 19 ------- null}
+ -t 0.226 -s 1 -d 2 -p cbr -e 500 -c 0 -i 19 -a 0 -x {0.0 2.0 19 ------- null}
- -t 0.228 -s 0 -d 1 -p cbr -e 1000 -c 0 -i 22 -a 0 -x {0.0 2.0 22 ------- null}
h -t 0.228 -s 0 -d 1 -p cbr -e 1000 -c 0 -i 22 -a 0 -x {0.0 2.0 -1 ------- null}
+ -t 0.23 -s 0 -d 1 -p cbr -e 1000 -c 0 -i 26 -a 0 -x {0.0 2.0 26 ------- null}
+ -t 0.23 -s 0 -d 1 -p cbr -e 500 -c 0 -i 27 -a 0 -x {0.0 2.0 27 ------- null}
r -t 0.230857142857143 -s 1 -d 2 -p cbr -e 500 -c 0 -i 11 -a 0 -x {0.0 2.0 11 ------- null}
- -t 0.232285714285714 -s 1 -d 2 -p cbr -e 1000 -c 0 -i 14 -a 0 -x {0.0 2.0 14 ------- null}
h -t 0.232285714285714 -s 1 -d 2 -p cbr -e 1000 -c 0 -i 14 -a 0 -x {0.0 2.0 -1 ------- null}
r -t 0.234 -s 0 -d 1 -p cbr -e 1000 -c 0 -i 20 -a 0 -x {0.0 2.0 20 ------- null}
+ -t 0.234 -s 1 -d 2 -p cbr -e 1000 -c 0 -i 20 -a 0 -x {0.0 2.0 20 ------- null}
- -t 0.236 -s 0 -d 1 -p cbr -e 1000 -c 0 -i 24 -a 0 -x {0.0 2.0 24 ------- null}
h -t 0.236 -s 0 -d 1 -p cbr -e 1000 -c 0 -i 24 -a 0 -x {0.0 2.0 -1 ------- null}
r -t 0.238 -s 0 -d 1 -p cbr -e 500 -c 0 -i 21 -a 0 -x {0.0 2.0 21 ------- null}
+ -t 0.238 -s 1 -d 2 -p cbr -e 500 -c 0 -i 21 -a 0 -x {0.0 2.0 21 ------- null}
d -t 0.238 -s 1 -d 2 -p cbr -e 500 -c 0 -i 21 -a 0 -x {0.0 2.0 21 ------- null}
+ -t 0.24 -s 0 -d 1 -p cbr -e 1000 -c 0 -i 28 -a 0 -x {0.0 2.0 28 ------- null}
+ -t 0.24 -s 0 -d 1 -p cbr -e 500 -c 0 -i 29 -a 0 -x {0.0 2.0 29 ------- null}
d -t 0.24 -s 0 -d 1 -p cbr -e 500 -c 0 -i 29 -a 0 -x {0.0 2.0 29 ------- null}
r -t 0.242285714285714 -s 1 -d 2 -p cbr -e 1000 -c 0 -i 12 -a 0 -x {0.0 2.0 12 ------- null}
- -t 0.243714285714286 -s 1 -d 2 -p cbr -e 500 -c 0 -i 15 -a 0 -x {0.0 2.0 15 ------- null}
h -t 0.243714285714286 -s 1 -d 2 -p cbr -e 500 -c 0 -i 15 -a 0 -x {0.0 2.0 -1 ------- null}
- -t 0.244 -s 0 -d 1 -p cbr -e 500 -c 0 -i 25 -a 0 -x {0.0 2.0 25 ------- null}
h -t 0.244 -s 0 -d 1 -p cbr -e 500 -c 0 -i 25 -a 0 -x {0.0 2.0 -1 ------- null}
r -t 0.246 -s 0 -d 1 -p cbr -e 1000 -c 0 -i 22 -a 0 -x {0.0 2.0 22 ------- null}
+ -t 0.246 -s 1 -d 2 -p cbr -e 1000 -c 0 -i 22 -a 0 -x {0.0 2.0 22 ------- null}
- -t 0.248 -s 0 -d 1 -p cbr -e 1000 -c 0 -i 26 -a 0 -x {0.0 2.0 26 ------- null}
h -t 0.248 -s 0 -d 1 -p cbr -e 1000 -c 0 -i 26 -a 0 -x {0.0 2.0 -1 ------- null}
- -t 0.249428571428572 -s 1 -d 2 -p cbr -e 1000 -c 0 -i 18 -a 0 -x {0.0 2.0 18 ------- null}
h -t 0.249428571428572 -s 1 -d 2 -p cbr -e 1000 -c 0 -i 18 -a 0 -x {0.0 2.0 -1 ------- null}
+ -t 0.25 -s 0 -d 1 -p cbr -e 1000 -c 0 -i 30 -a 0 -x {0.0 2.0 30 ------- null}
+ -t 0.25 -s 0 -d 1 -p cbr -e 500 -c 0 -i 31 -a 0 -x {0.0 2.0 31 ------- null}
r -t 0.253714285714286 -s 1 -d 2 -p cbr -e 1000 -c 0 -i 14 -a 0 -x {0.0 2.0 14 ------- null}
r -t 0.254 -s 0 -d 1 -p cbr -e 1000 -c 0 -i 24 -a 0 -x {0.0 2.0 24 ------- null}
+ -t 0.254 -s 1 -d 2 -p cbr -e 1000 -c 0 -i 24 -a 0 -x {0.0 2.0 24 ------- null}
- -t 0.256 -s 0 -d 1 -p cbr -e 500 -c 0 -i 27 -a 0 -x {0.0 2.0 27 ------- null}
h -t 0.256 -s 0 -d 1 -p cbr -e 500 -c 0 -i 27 -a 0 -x {0.0 2.0 -1 ------- null}
r -t 0.258 -s 0 -d 1 -p cbr -e 500 -c 0 -i 25 -a 0 -x {0.0 2.0 25 ------- null}
+ -t 0.258 -s 1 -d 2 -p cbr -e 500 -c 0 -i 25 -a 0 -x {0.0 2.0 25 ------- null}
d -t 0.258 -s 1 -d 2 -p cbr -e 500 -c 0 -i 25 -a 0 -x {0.0 2.0 25 ------- null}
r -t 0.259428571428572 -s 1 -d 2 -p cbr -e 500 -c 0 -i 15 -a 0 -x {0.0 2.0 15 ------- null}
+ -t 0.26 -s 0 -d 1 -p cbr -e 1000 -c 0 -i 32 -a 0 -x {0.0 2.0 32 ------- null}
+ -t 0.26 -s 0 -d 1 -p cbr -e 500 -c 0 -i 33 -a 0 -x {0.0 2.0 33 ------- null}
d -t 0.26 -s 0 -d 1 -p cbr -e 500 -c 0 -i 33 -a 0 -x {0.0 2.0 33 ------- null}
- -t 0.26 -s 0 -d 1 -p cbr -e 1000 -c 0 -i 28 -a 0 -x {0.0 2.0 28 ------- null}
h -t 0.26 -s 0 -d 1 -p cbr -e 1000 -c 0 -i 28 -a 0 -x {0.0 2.0 -1 ------- null}
- -t 0.260857142857143 -s 1 -d 2 -p cbr -e 500 -c 0 -i 19 -a 0 -x {0.0 2.0 19 ------- null}
h -t 0.260857142857143 -s 1 -d 2 -p cbr -e 500 -c 0 -i 19 -a 0 -x {0.0 2.0 -1 ------- null}
r -t 0.266 -s 0 -d 1 -p cbr -e 1000 -c 0 -i 26 -a 0 -x {0.0 2.0 26 ------- null}
+ -t 0.266 -s 1 -d 2 -p cbr -e 1000 -c 0 -i 26 -a 0 -x {0.0 2.0 26 ------- null}
- -t 0.266571428571429 -s 1 -d 2 -p cbr -e 1000 -c 0 -i 20 -a 0 -x {0.0 2.0 20 ------- null}
h -t 0.266571428571429 -s 1 -d 2 -p cbr -e 1000 -c 0 -i 20 -a 0 -x {0.0 2.0 -1 ------- null}
- -t 0.268 -s 0 -d 1 -p cbr -e 1000 -c 0 -i 30 -a 0 -x {0.0 2.0 30 ------- null}
h -t 0.268 -s 0 -d 1 -p cbr -e 1000 -c 0 -i 30 -a 0 -x {0.0 2.0 -1 ------- null}
r -t 0.27 -s 0 -d 1 -p cbr -e 500 -c 0 -i 27 -a 0 -x {0.0 2.0 27 ------- null}
+ -t 0.27 -s 1 -d 2 -p cbr -e 500 -c 0 -i 27 -a 0 -x {0.0 2.0 27 ------- null}
+ -t 0.27 -s 0 -d 1 -p cbr -e 1000 -c 0 -i 34 -a 0 -x {0.0 2.0 34 ------- null}
+ -t 0.27 -s 0 -d 1 -p cbr -e 500 -c 0 -i 35 -a 0 -x {0.0 2.0 35 ------- null}
r -t 0.270857142857143 -s 1 -d 2 -p cbr -e 1000 -c 0 -i 18 -a 0 -x {0.0 2.0 18 ------- null}
- -t 0.276 -s 0 -d 1 -p cbr -e 500 -c 0 -i 31 -a 0 -x {0.0 2.0 31 ------- null}
h -t 0.276 -s 0 -d 1 -p cbr -e 500 -c 0 -i 31 -a 0 -x {0.0 2.0 -1 ------- null}
r -t 0.276571428571429 -s 1 -d 2 -p cbr -e 500 -c 0 -i 19 -a 0 -x {0.0 2.0 19 ------- null}
r -t 0.278 -s 0 -d 1 -p cbr -e 1000 -c 0 -i 28 -a 0 -x {0.0 2.0 28 ------- null}
+ -t 0.278 -s 1 -d 2 -p cbr -e 1000 -c 0 -i 28 -a 0 -x {0.0 2.0 28 ------- null}
d -t 0.278 -s 1 -d 2 -p cbr -e 1000 -c 0 -i 28 -a 0 -x {0.0 2.0 28 ------- null}
- -t 0.278 -s 1 -d 2 -p cbr -e 1000 -c 0 -i 22 -a 0 -x {0.0 2.0 22 ------- null}
h -t 0.278 -s 1 -d 2 -p cbr -e 1000 -c 0 -i 22 -a 0 -x {0.0 2.0 -1 ------- null}
+ -t 0.28 -s 0 -d 1 -p cbr -e 1000 -c 0 -i 36 -a 0 -x {0.0 2.0 36 ------- null}
+ -t 0.28 -s 0 -d 1 -p cbr -e 500 -c 0 -i 37 -a 0 -x {0.0 2.0 37 ------- null}
d -t 0.28 -s 0 -d 1 -p cbr -e 500 -c 0 -i 37 -a 0 -x {0.0 2.0 37 ------- null}
- -t 0.28 -s 0 -d 1 -p cbr -e 1000 -c 0 -i 32 -a 0 -x {0.0 2.0 32 ------- null}
h -t 0.28 -s 0 -d 1 -p cbr -e 1000 -c 0 -i 32 -a 0 -x {0.0 2.0 -1 ------- null}
r -t 0.286 -s 0 -d 1 -p cbr -e 1000 -c 0 -i 30 -a 0 -x {0.0 2.0 30 ------- null}
+ -t 0.286 -s 1 -d 2 -p cbr -e 1000 -c 0 -i 30 -a 0 -x {0.0 2.0 30 ------- null}
r -t 0.288 -s 1 -d 2 -p cbr -e 1000 -c 0 -i 20 -a 0 -x {0.0 2.0 20 ------- null}
- -t 0.288 -s 0 -d 1 -p cbr -e 1000 -c 0 -i 34 -a 0 -x {0.0 2.0 34 ------- null}
h -t 0.288 -s 0 -d 1 -p cbr -e 1000 -c 0 -i 34 -a 0 -x {0.0 2.0 -1 ------- null}
- -t 0.289428571428572 -s 1 -d 2 -p cbr -e 1000 -c 0 -i 24 -a 0 -x {0.0 2.0 24 ------- null}
h -t 0.289428571428572 -s 1 -d 2 -p cbr -e 1000 -c 0 -i 24 -a 0 -x {0.0 2.0 -1 ------- null}
r -t 0.29 -s 0 -d 1 -p cbr -e 500 -c 0 -i 31 -a 0 -x {0.0 2.0 31 ------- null}
+ -t 0.29 -s 1 -d 2 -p cbr -e 500 -c 0 -i 31 -a 0 -x {0.0 2.0 31 ------- null}
+ -t 0.29 -s 0 -d 1 -p cbr -e 1000 -c 0 -i 38 -a 0 -x {0.0 2.0 38 ------- null}
+ -t 0.29 -s 0 -d 1 -p cbr -e 500 -c 0 -i 39 -a 0 -x {0.0 2.0 39 ------- null}
- -t 0.296 -s 0 -d 1 -p cbr -e 500 -c 0 -i 35 -a 0 -x {0.0 2.0 35 ------- null}
h -t 0.296 -s 0 -d 1 -p cbr -e 500 -c 0 -i 35 -a 0 -x {0.0 2.0 -1 ------- null}
r -t 0.298 -s 0 -d 1 -p cbr -e 1000 -c 0 -i 32 -a 0 -x {0.0 2.0 32 ------- null}
+ -t 0.298 -s 1 -d 2 -p cbr -e 1000 -c 0 -i 32 -a 0 -x {0.0 2.0 32 ------- null}
d -t 0.298 -s 1 -d 2 -p cbr -e 1000 -c 0 -i 32 -a 0 -x {0.0 2.0 32 ------- null}
r -t 0.299428571428572 -s 1 -d 2 -p cbr -e 1000 -c 0 -i 22 -a 0 -x {0.0 2.0 22 ------- null}
+ -t 0.3 -s 0 -d 1 -p cbr -e 1000 -c 0 -i 40 -a 0 -x {0.0 2.0 40 ------- null}
+ -t 0.3 -s 0 -d 1 -p cbr -e 500 -c 0 -i 41 -a 0 -x {0.0 2.0 41 ------- null}
d -t 0.3 -s 0 -d 1 -p cbr -e 500 -c 0 -i 41 -a 0 -x {0.0 2.0 41 ------- null}
- -t 0.3 -s 0 -d 1 -p cbr -e 1000 -c 0 -i 36 -a 0 -x {0.0 2.0 36 ------- null}
h -t 0.3 -s 0 -d 1 -p cbr -e 1000 -c 0 -i 36 -a 0 -x {0.0 2.0 -1 ------- null}
- -t 0.300857142857143 -s 1 -d 2 -p cbr -e 1000 -c 0 -i 26 -a 0 -x {0.0 2.0 26 ------- null}
h -t 0.300857142857143 -s 1 -d 2 -p cbr -e 1000 -c 0 -i 26 -a 0 -x {0.0 2.0 -1 ------- null}
r -t 0.306 -s 0 -d 1 -p cbr -e 1000 -c 0 -i 34 -a 0 -x {0.0 2.0 34 ------- null}
+ -t 0.306 -s 1 -d 2 -p cbr -e 1000 -c 0 -i 34 -a 0 -x {0.0 2.0 34 ------- null}
- -t 0.308 -s 0 -d 1 -p cbr -e 1000 -c 0 -i 38 -a 0 -x {0.0 2.0 38 ------- null}
h -t 0.308 -s 0 -d 1 -p cbr -e 1000 -c 0 -i 38 -a 0 -x {0.0 2.0 -1 ------- null}
r -t 0.31 -s 0 -d 1 -p cbr -e 500 -c 0 -i 35 -a 0 -x {0.0 2.0 35 ------- null}
+ -t 0.31 -s 1 -d 2 -p cbr -e 500 -c 0 -i 35 -a 0 -x {0.0 2.0 35 ------- null}
d -t 0.31 -s 1 -d 2 -p cbr -e 500 -c 0 -i 35 -a 0 -x {0.0 2.0 35 ------- null}
+ -t 0.31 -s 0 -d 1 -p cbr -e 1000 -c 0 -i 42 -a 0 -x {0.0 2.0 42 ------- null}
+ -t 0.31 -s 0 -d 1 -p cbr -e 500 -c 0 -i 43 -a 0 -x {0.0 2.0 43 ------- null}
r -t 0.310857142857143 -s 1 -d 2 -p cbr -e 1000 -c 0 -i 24 -a 0 -x {0.0 2.0 24 ------- null}
- -t 0.312285714285714 -s 1 -d 2 -p cbr -e 500 -c 0 -i 27 -a 0 -x {0.0 2.0 27 ------- null}
h -t 0.312285714285714 -s 1 -d 2 -p cbr -e 500 -c 0 -i 27 -a 0 -x {0.0 2.0 -1 ------- null}
- -t 0.316 -s 0 -d 1 -p cbr -e 500 -c 0 -i 39 -a 0 -x {0.0 2.0 39 ------- null}
h -t 0.316 -s 0 -d 1 -p cbr -e 500 -c 0 -i 39 -a 0 -x {0.0 2.0 -1 ------- null}
r -t 0.318 -s 0 -d 1 -p cbr -e 1000 -c 0 -i 36 -a 0 -x {0.0 2.0 36 ------- null}
+ -t 0.318 -s 1 -d 2 -p cbr -e 1000 -c 0 -i 36 -a 0 -x {0.0 2.0 36 ------- null}
- -t 0.318 -s 1 -d 2 -p cbr -e 1000 -c 0 -i 30 -a 0 -x {0.0 2.0 30 ------- null}
h -t 0.318 -s 1 -d 2 -p cbr -e 1000 -c 0 -i 30 -a 0 -x {0.0 2.0 -1 ------- null}
+ -t 0.32 -s 0 -d 1 -p cbr -e 1000 -c 0 -i 44 -a 0 -x {0.0 2.0 44 ------- null}
+ -t 0.32 -s 0 -d 1 -p cbr -e 500 -c 0 -i 45 -a 0 -x {0.0 2.0 45 ------- null}
d -t 0.32 -s 0 -d 1 -p cbr -e 500 -c 0 -i 45 -a 0 -x {0.0 2.0 45 ------- null}
- -t 0.32 -s 0 -d 1 -p cbr -e 1000 -c 0 -i 40 -a 0 -x {0.0 2.0 40 ------- null}
h -t 0.32 -s 0 -d 1 -p cbr -e 1000 -c 0 -i 40 -a 0 -x {0.0 2.0 -1 ------- null}
r -t 0.322285714285714 -s 1 -d 2 -p cbr -e 1000 -c 0 -i 26 -a 0 -x {0.0 2.0 26 ------- null}
r -t 0.326 -s 0 -d 1 -p cbr -e 1000 -c 0 -i 38 -a 0 -x {0.0 2.0 38 ------- null}
+ -t 0.326 -s 1 -d 2 -p cbr -e 1000 -c 0 -i 38 -a 0 -x {0.0 2.0 38 ------- null}
- -t 0.328 -s 0 -d 1 -p cbr -e 1000 -c 0 -i 42 -a 0 -x {0.0 2.0 42 ------- null}
h -t 0.328 -s 0 -d 1 -p cbr -e 1000 -c 0 -i 42 -a 0 -x {0.0 2.0 -1 ------- null}
r -t 0.328 -s 1 -d 2 -p cbr -e 500 -c 0 -i 27 -a 0 -x {0.0 2.0 27 ------- null}
- -t 0.329428571428572 -s 1 -d 2 -p cbr -e 500 -c 0 -i 31 -a 0 -x {0.0 2.0 31 ------- null}
h -t 0.329428571428572 -s 1 -d 2 -p cbr -e 500 -c 0 -i 31 -a 0 -x {0.0 2.0 -1 ------- null}
r -t 0.33 -s 0 -d 1 -p cbr -e 500 -c 0 -i 39 -a 0 -x {0.0 2.0 39 ------- null}
+ -t 0.33 -s 1 -d 2 -p cbr -e 500 -c 0 -i 39 -a 0 -x {0.0 2.0 39 ------- null}
+ -t 0.33 -s 0 -d 1 -p cbr -e 1000 -c 0 -i 46 -a 0 -x {0.0 2.0 46 ------- null}
+ -t 0.33 -s 0 -d 1 -p cbr -e 500 -c 0 -i 47 -a 0 -x {0.0 2.0 47 ------- null}
- -t 0.335142857142857 -s 1 -d 2 -p cbr -e 1000 -c 0 -i 34 -a 0 -x {0.0 2.0 34 ------- null}
h -t 0.335142857142857 -s 1 -d 2 -p cbr -e 1000 -c 0 -i 34 -a 0 -x {0.0 2.0 -1 ------- null}
- -t 0.336 -s 0 -d 1 -p cbr -e 500 -c 0 -i 43 -a 0 -x {0.0 2.0 43 ------- null}
h -t 0.336 -s 0 -d 1 -p cbr -e 500 -c 0 -i 43 -a 0 -x {0.0 2.0 -1 ------- null}
r -t 0.338 -s 0 -d 1 -p cbr -e 1000 -c 0 -i 40 -a 0 -x {0.0 2.0 40 ------- null}
+ -t 0.338 -s 1 -d 2 -p cbr -e 1000 -c 0 -i 40 -a 0 -x {0.0 2.0 40 ------- null}
r -t 0.339428571428572 -s 1 -d 2 -p cbr -e 1000 -c 0 -i 30 -a 0 -x {0.0 2.0 30 ------- null}
+ -t 0.34 -s 0 -d 1 -p cbr -e 1000 -c 0 -i 48 -a 0 -x {0.0 2.0 48 ------- null}
+ -t 0.34 -s 0 -d 1 -p cbr -e 500 -c 0 -i 49 -a 0 -x {0.0 2.0 49 ------- null}
d -t 0.34 -s 0 -d 1 -p cbr -e 500 -c 0 -i 49 -a 0 -x {0.0 2.0 49 ------- null}
- -t 0.34 -s 0 -d 1 -p cbr -e 1000 -c 0 -i 44 -a 0 -x {0.0 2.0 44 ------- null}
h -t 0.34 -s 0 -d 1 -p cbr -e 1000 -c 0 -i 44 -a 0 -x {0.0 2.0 -1 ------- null}
r -t 0.345142857142857 -s 1 -d 2 -p cbr -e 500 -c 0 -i 31 -a 0 -x {0.0 2.0 31 ------- null}
r -t 0.346 -s 0 -d 1 -p cbr -e 1000 -c 0 -i 42 -a 0 -x {0.0 2.0 42 ------- null}
+ -t 0.346 -s 1 -d 2 -p cbr -e 1000 -c 0 -i 42 -a 0 -x {0.0 2.0 42 ------- null}
d -t 0.346 -s 1 -d 2 -p cbr -e 1000 -c 0 -i 42 -a 0 -x {0.0 2.0 42 ------- null}
- -t 0.346571428571429 -s 1 -d 2 -p cbr -e 1000 -c 0 -i 36 -a 0 -x {0.0 2.0 36 ------- null}
h -t 0.346571428571429 -s 1 -d 2 -p cbr -e 1000 -c 0 -i 36 -a 0 -x {0.0 2.0 -1 ------- null}
- -t 0.348 -s 0 -d 1 -p cbr -e 1000 -c 0 -i 46 -a 0 -x {0.0 2.0 46 ------- null}
h -t 0.348 -s 0 -d 1 -p cbr -e 1000 -c 0 -i 46 -a 0 -x {0.0 2.0 -1 ------- null}
r -t 0.35 -s 0 -d 1 -p cbr -e 500 -c 0 -i 43 -a 0 -x {0.0 2.0 43 ------- null}
+ -t 0.35 -s 1 -d 2 -p cbr -e 500 -c 0 -i 43 -a 0 -x {0.0 2.0 43 ------- null}
+ -t 0.35 -s 0 -d 1 -p cbr -e 1000 -c 0 -i 50 -a 0 -x {0.0 2.0 50 ------- null}
+ -t 0.35 -s 0 -d 1 -p cbr -e 500 -c 0 -i 51 -a 0 -x {0.0 2.0 51 ------- null}
- -t 0.356 -s 0 -d 1 -p cbr -e 500 -c 0 -i 47 -a 0 -x {0.0 2.0 47 ------- null}
h -t 0.356 -s 0 -d 1 -p cbr -e 500 -c 0 -i 47 -a 0 -x {0.0 2.0 -1 ------- null}
r -t 0.356571428571429 -s 1 -d 2 -p cbr -e 1000 -c 0 -i 34 -a 0 -x {0.0 2.0 34 ------- null}
r -t 0.358 -s 0 -d 1 -p cbr -e 1000 -c 0 -i 44 -a 0 -x {0.0 2.0 44 ------- null}
+ -t 0.358 -s 1 -d 2 -p cbr -e 1000 -c 0 -i 44 -a 0 -x {0.0 2.0 44 ------- null}
d -t 0.358 -s 1 -d 2 -p cbr -e 1000 -c 0 -i 44 -a 0 -x {0.0 2.0 44 ------- null}
- -t 0.358 -s 1 -d 2 -p cbr -e 1000 -c 0 -i 38 -a 0 -x {0.0 2.0 38 ------- null}
h -t 0.358 -s 1 -d 2 -p cbr -e 1000 -c 0 -i 38 -a 0 -x {0.0 2.0 -1 ------- null}
+ -t 0.36 -s 0 -d 1 -p cbr -e 1000 -c 0 -i 52 -a 0 -x {0.0 2.0 52 ------- null}
+ -t 0.36 -s 0 -d 1 -p cbr -e 500 -c 0 -i 53 -a 0 -x {0.0 2.0 53 ------- null}
d -t 0.36 -s 0 -d 1 -p cbr -e 500 -c 0 -i 53 -a 0 -x {0.0 2.0 53 ------- null}
- -t 0.36 -s 0 -d 1 -p cbr -e 1000 -c 0 -i 48 -a 0 -x {0.0 2.0 48 ------- null}
h -t 0.36 -s 0 -d 1 -p cbr -e 1000 -c 0 -i 48 -a 0 -x {0.0 2.0 -1 ------- null}
r -t 0.366 -s 0 -d 1 -p cbr -e 1000 -c 0 -i 46 -a 0 -x {0.0 2.0 46 ------- null}
+ -t 0.366 -s 1 -d 2 -p cbr -e 1000 -c 0 -i 46 -a 0 -x {0.0 2.0 46 ------- null}
- -t 0.368 -s 0 -d 1 -p cbr -e 1000 -c 0 -i 50 -a 0 -x {0.0 2.0 50 ------- null}
h -t 0.368 -s 0 -d 1 -p cbr -e 1000 -c 0 -i 50 -a 0 -x {0.0 2.0 -1 ------- null}
r -t 0.368 -s 1 -d 2 -p cbr -e 1000 -c 0 -i 36 -a 0 -x {0.0 2.0 36 ------- null}
- -t 0.369428571428572 -s 1 -d 2 -p cbr -e 500 -c 0 -i 39 -a 0 -x {0.0 2.0 39 ------- null}
h -t 0.369428571428572 -s 1 -d 2 -p cbr -e 500 -c 0 -i 39 -a 0 -x {0.0 2.0 -1 ------- null}
r -t 0.37 -s 0 -d 1 -p cbr -e 500 -c 0 -i 47 -a 0 -x {0.0 2.0 47 ------- null}
+ -t 0.37 -s 1 -d 2 -p cbr -e 500 -c 0 -i 47 -a 0 -x {0.0 2.0 47 ------- null}
+ -t 0.37 -s 0 -d 1 -p cbr -e 1000 -c 0 -i 54 -a 0 -x {0.0 2.0 54 ------- null}
+ -t 0.37 -s 0 -d 1 -p cbr -e 500 -c 0 -i 55 -a 0 -x {0.0 2.0 55 ------- null}
- -t 0.375142857142857 -s 1 -d 2 -p cbr -e 1000 -c 0 -i 40 -a 0 -x {0.0 2.0 40 ------- null}
h -t 0.375142857142857 -s 1 -d 2 -p cbr -e 1000 -c 0 -i 40 -a 0 -x {0.0 2.0 -1 ------- null}
- -t 0.376 -s 0 -d 1 -p cbr -e 500 -c 0 -i 51 -a 0 -x {0.0 2.0 51 ------- null}
h -t 0.376 -s 0 -d 1 -p cbr -e 500 -c 0 -i 51 -a 0 -x {0.0 2.0 -1 ------- null}
r -t 0.378 -s 0 -d 1 -p cbr -e 1000 -c 0 -i 48 -a 0 -x {0.0 2.0 48 ------- null}
+ -t 0.378 -s 1 -d 2 -p cbr -e 1000 -c 0 -i 48 -a 0 -x {0.0 2.0 48 ------- null}
r -t 0.379428571428572 -s 1 -d 2 -p cbr -e 1000 -c 0 -i 38 -a 0 -x {0.0 2.0 38 ------- null}
+ -t 0.38 -s 0 -d 1 -p cbr -e 1000 -c 0 -i 56 -a 0 -x {0.0 2.0 56 ------- null}
+ -t 0.38 -s 0 -d 1 -p cbr -e 500 -c 0 -i 57 -a 0 -x {0.0 2.0 57 ------- null}
d -t 0.38 -s 0 -d 1 -p cbr -e 500 -c 0 -i 57 -a 0 -x {0.0 2.0 57 ------- null}
- -t 0.38 -s 0 -d 1 -p cbr -e 1000 -c 0 -i 52 -a 0 -x {0.0 2.0 52 ------- null}
h -t 0.38 -s 0 -d 1 -p cbr -e 1000 -c 0 -i 52 -a 0 -x {0.0 2.0 -1 ------- null}
r -t 0.385142857142858 -s 1 -d 2 -p cbr -e 500 -c 0 -i 39 -a 0 -x {0.0 2.0 39 ------- null}
r -t 0.386 -s 0 -d 1 -p cbr -e 1000 -c 0 -i 50 -a 0 -x {0.0 2.0 50 ------- null}
+ -t 0.386 -s 1 -d 2 -p cbr -e 1000 -c 0 -i 50 -a 0 -x {0.0 2.0 50 ------- null}
d -t 0.386 -s 1 -d 2 -p cbr -e 1000 -c 0 -i 50 -a 0 -x {0.0 2.0 50 ------- null}
- -t 0.386571428571429 -s 1 -d 2 -p cbr -e 500 -c 0 -i 43 -a 0 -x {0.0 2.0 43 ------- null}
h -t 0.386571428571429 -s 1 -d 2 -p cbr -e 500 -c 0 -i 43 -a 0 -x {0.0 2.0 -1 ------- null}
- -t 0.388 -s 0 -d 1 -p cbr -e 1000 -c 0 -i 54 -a 0 -x {0.0 2.0 54 ------- null}
h -t 0.388 -s 0 -d 1 -p cbr -e 1000 -c 0 -i 54 -a 0 -x {0.0 2.0 -1 ------- null}
r -t 0.39 -s 0 -d 1 -p cbr -e 500 -c 0 -i 51 -a 0 -x {0.0 2.0 51 ------- null}
+ -t 0.39 -s 1 -d 2 -p cbr -e 500 -c 0 -i 51 -a 0 -x {0.0 2.0 51 ------- null}
+ -t 0.39 -s 0 -d 1 -p cbr -e 1000 -c 0 -i 58 -a 0 -x {0.0 2.0 58 ------- null}
+ -t 0.39 -s 0 -d 1 -p cbr -e 500 -c 0 -i 59 -a 0 -x {0.0 2.0 59 ------- null}
- -t 0.392285714285715 -s 1 -d 2 -p cbr -e 1000 -c 0 -i 46 -a 0 -x {0.0 2.0 46 ------- null}
h -t 0.392285714285715 -s 1 -d 2 -p cbr -e 1000 -c 0 -i 46 -a 0 -x {0.0 2.0 -1 ------- null}
- -t 0.396 -s 0 -d 1 -p cbr -e 500 -c 0 -i 55 -a 0 -x {0.0 2.0 55 ------- null}
h -t 0.396 -s 0 -d 1 -p cbr -e 500 -c 0 -i 55 -a 0 -x {0.0 2.0 -1 ------- null}
r -t 0.396571428571429 -s 1 -d 2 -p cbr -e 1000 -c 0 -i 40 -a 0 -x {0.0 2.0 40 ------- null}
r -t 0.398 -s 0 -d 1 -p cbr -e 1000 -c 0 -i 52 -a 0 -x {0.0 2.0 52 ------- null}
+ -t 0.398 -s 1 -d 2 -p cbr -e 1000 -c 0 -i 52 -a 0 -x {0.0 2.0 52 ------- null}
+ -t 0.4 -s 0 -d 1 -p cbr -e 1000 -c 0 -i 60 -a 0 -x {0.0 2.0 60 ------- null}
+ -t 0.4 -s 0 -d 1 -p cbr -e 500 -c 0 -i 61 -a 0 -x {0.0 2.0 61 ------- null}
d -t 0.4 -s 0 -d 1 -p cbr -e 500 -c 0 -i 61 -a 0 -x {0.0 2.0 61 ------- null}
- -t 0.4 -s 0 -d 1 -p cbr -e 1000 -c 0 -i 56 -a 0 -x {0.0 2.0 56 ------- null}